/*--------------------------------*- C++ -*----------------------------------*\
| =========                 |                                                 |
| \\      /  F ield         | OpenFOAM: The Open Source CFD Toolbox           |
|  \\    /   O peration     | Version:  2.1.1                                 |
|   \\  /    A nd           | Web:      www.OpenFOAM.org                      |
|    \\/     M anipulation  |                                                 |
\*---------------------------------------------------------------------------*/
FoamFile
{
    version     2.0;
    format      ascii;
    class       volScalarField;
    location    "1";
    object      p;
}
// * * * * * * * * * * * * * * * * * * * * * * * * * * * * * * * * * * * * * //

dimensions      [0 2 -2 0 0 0 0];

internalField   nonuniform List<scalar> 
1681
(
7.75962e-09
-0.000133887
-0.000431728
-0.000820667
-0.00123058
-0.00161607
-0.00194692
-0.00220434
-0.00237743
-0.00246022
-0.00244957
-0.0023439
-0.00214249
-0.00184535
-0.0014534
-0.000968856
-0.00039583
0.00025911
0.000986394
0.00177305
0.0026025
0.00345468
0.00430633
0.0051318
0.00590404
0.00659598
0.0071821
0.00764013
0.00795272
0.00810903
0.00810597
0.00794903
0.0076527
0.00724036
0.00674375
0.00620203
0.00566081
0.00517078
0.00478531
0.00456158
0.00452777
0.000133107
-2.87894e-06
-0.000243695
-0.000544877
-0.000862646
-0.00116345
-0.00142341
-0.00162637
-0.00176185
-0.00182327
-0.00180656
-0.00170926
-0.00152999
-0.00126829
-0.000924715
-0.000501176
-1.32617e-06
0.000568977
0.00120126
0.00188414
0.00260313
0.00334089
0.00407734
0.00479045
0.00545713
0.00605439
0.00656067
0.00695737
0.00723026
0.00737076
0.00737705
0.00725467
0.00701677
0.00668387
0.00628317
0.0058476
0.00541432
0.0050214
0.00471054
0.00452403
0.00449326
0.000436448
0.000233696
-1.24305e-05
-0.000284324
-0.000560481
-0.000817114
-0.00103654
-0.00120659
-0.00131892
-0.00136789
-0.00134968
-0.00126171
-0.00110228
-0.000870469
-0.000566301
-0.000191025
0.000252508
0.000759431
0.00132248
0.00193173
0.00257438
0.00323502
0.0038956
0.0045363
0.00513624
0.00567455
0.00613168
0.00649073
0.00673881
0.00686828
0.00687766
0.0067722
0.00656402
0.0062717
0.0059195
0.00553617
0.0051534
0.00480355
0.00451882
0.00433351
0.00427467
0.000842954
0.000534507
0.000244959
-3.33372e-05
-0.000299773
-0.000538579
-0.000737947
-0.000890331
-0.000990429
-0.00103441
-0.00101941
-0.000943181
-0.000803886
-0.000600167
-0.00033135
2.21749e-06
0.000398753
0.000854604
0.00136384
0.00191794
0.00250558
0.00311275
0.00372279
0.00431711
0.00487589
0.00537913
0.00580789
0.00614567
0.00637974
0.00650236
0.00651173
0.0064125
0.00621585
0.005939
0.00560427
0.00523775
0.00486767
0.00452269
0.00423055
0.00401597
0.0038959
0.00128341
0.000853464
0.000502951
0.000200774
-7.23984e-05
-0.00030784
-0.00049927
-0.000643861
-0.000739629
-0.000784858
-0.000777901
-0.000716992
-0.000600235
-0.000425777
-0.000192117
0.000101481
0.000454506
0.0008647
0.00132759
0.0018361
0.00238028
0.00294729
0.0035215
0.00408503
0.00461847
0.0051019
0.00551617
0.00584431
0.00607291
0.00619345
0.00620324
0.00610601
0.00591191
0.00563703
0.00530229
0.00493198
0.00455198
0.00418865
0.00386705
0.00360194
0.0033982
0.00170601
0.00114941
0.000728956
0.000391935
0.000100582
-0.000142492
-0.000336032
-0.000481712
-0.000580811
-0.000633764
-0.000640171
-0.000598776
-0.000507589
-0.000364179
-0.000166085
8.8672e-05
0.000401018
0.000770243
0.00119343
0.001665
0.00217631
0.00271551
0.00326774
0.00381539
0.0043389
0.00481779
0.00523197
0.0055632
0.00579662
0.00592219
0.00593573
0.00583961
0.0056428
0.00536035
0.00501221
0.00462161
0.00421322
0.00381245
0.00344335
0.00311182
0.00281108
0.0020679
0.00138576
0.000891799
0.000513523
0.000196283
-6.26421e-05
-0.000266512
-0.000421141
-0.000530846
-0.000598066
-0.000623544
-0.00060644
-0.000544562
-0.000434773
-0.000273509
-5.73862e-05
0.000216124
0.000548008
0.000937033
0.00137916
0.00186708
0.00238987
0.00293317
0.00347938
0.00400835
0.00449847
0.00492803
0.00527678
0.00552762
0.00566819
0.00569211
0.00559985
0.00539888
0.00510316
0.00473199
0.00430822
0.00385635
0.00340223
0.00297054
0.00255997
0.00215356
0.00233251
0.00152955
0.000962253
0.000539877
0.000192202
-8.82712e-05
-0.000308871
-0.000479166
-0.000606202
-0.000694173
-0.000744765
-0.000757373
-0.00072944
-0.00065696
-0.000535092
-0.000358875
-0.000123995
0.00017241
0.000530954
0.000949283
0.00142149
0.00193763
0.00248379
0.00304215
0.0035917
0.00410925
0.00457085
0.00495352
0.00523708
0.00540595
0.00545075
0.0053693
0.00516703
0.00485664
0.00445693
0.00399093
0.00348389
0.00296343
0.00245645
0.00195605
0.00143661
0.0024678
0.00155076
0.00091263
0.000445686
6.52082e-05
-0.000240705
-0.000483099
-0.000674926
-0.00082563
-0.000940874
-0.00102303
-0.00107152
-0.0010832
-0.00105302
-0.000974664
-0.000841389
-0.000646885
-0.000386193
-5.66183e-05
0.0003414
0.00080355
0.00132105
0.00188049
0.00246384
0.00304902
0.00361093
0.00412286
0.00455833
0.00489319
0.00510767
0.00518829
0.0051293
0.00493335
0.00461141
0.00418176
0.00366801
0.00309704
0.00249946
0.00190593
0.00130531
0.000664412
0.00244491
0.00142182
0.000716858
0.000206387
-0.000207858
-0.000541934
-0.000810326
-0.00102904
-0.00120959
-0.00135884
-0.00147957
-0.00157099
-0.00162918
-0.00164781
-0.0016189
-0.00153368
-0.00138362
-0.00116135
-0.000861806
-0.000483161
-2.77901e-05
0.000496994
0.00107856
0.0016988
0.00233458
0.00295865
0.00354108
0.00405117
0.0044598
0.00474183
0.00487843
0.00485899
0.00468234
0.00435699
0.0039004
0.00333701
0.00269601
0.00201226
0.00132162
0.000609798
-0.000163409
0.00223749
0.00111743
0.000350642
-0.000201354
-0.000649466
-0.00101373
-0.00131184
-0.00156257
-0.00177923
-0.00196958
-0.00213662
-0.00227909
-0.00239211
-0.00246784
-0.00249643
-0.00246685
-0.00236803
-0.00218987
-0.00192451
-0.00156742
-0.00111852
-0.00058317
2.72433e-05
0.000694913
0.00139584
0.00210056
0.00277556
0.00338525
0.00389447
0.00427135
0.00449013
0.00453376
0.00439575
0.00408101
0.00360557
0.00299466
0.00228038
0.00150295
0.000704983
-0.000130286
-0.00104996
0.00182153
0.000614537
-0.000208315
-0.000799236
-0.00128082
-0.00167693
-0.0020083
-0.00229619
-0.00255547
-0.0027946
-0.00301654
-0.00321942
-0.00339717
-0.00354032
-0.00363687
-0.00367332
-0.00363571
-0.00351082
-0.0032875
-0.00295791
-0.00251888
-0.00197309
-0.00132999
-0.000606474
0.000173035
0.000977072
0.00176835
0.00250576
0.00314702
0.003652
0.00398614
0.00412389
0.00405144
0.00376847
0.00328844
0.00263698
0.00184947
0.000972589
5.728e-05
-0.000915262
-0.00199933
0.00117547
-0.000107444
-0.000980012
-0.00160689
-0.00212131
-0.00255081
-0.00291897
-0.00324935
-0.00355816
-0.00385437
-0.00414077
-0.00441473
-0.00466885
-0.00489187
-0.00506948
-0.00518543
-0.00522253
-0.00516402
-0.00499485
-0.00470319
-0.00428194
-0.00373017
-0.00305444
-0.00226981
-0.00140036
-0.00047908
0.000453087
0.00134906
0.00215842
0.00283111
0.00332158
0.00359324
0.00362233
0.00340095
0.00293823
0.00225928
0.0014028
0.000422945
-0.000619345
-0.00174464
-0.00301505
0.00028055
-0.00106633
-0.00198177
-0.0026414
-0.0031879
-0.00365232
-0.00406092
-0.00443935
-0.004805
-0.00516723
-0.00552859
-0.00588557
-0.00622941
-0.00654692
-0.00682137
-0.00703349
-0.00716259
-0.00718783
-0.00708967
-0.00685148
-0.00646122
-0.00591326
-0.00521001
-0.00436346
-0.00339619
-0.0023418
-0.00124444
-0.000157254
0.000860349
0.0017467
0.00244283
0.00289801
0.00307524
0.00295575
0.00254174
0.00185613
0.000940473
-0.000142741
-0.00132078
-0.0026158
-0.00409852
-0.000878722
-0.00227675
-0.00322781
-0.00391684
-0.00449462
-0.00499548
-0.00544822
-0.0058804
-0.00631048
-0.00674816
-0.00719569
-0.00764873
-0.00809712
-0.00852572
-0.00891528
-0.00924338
-0.00948548
-0.00961625
-0.00961097
-0.00944735
-0.00910732
-0.00857921
-0.00785983
-0.00695646
-0.00588862
-0.00468912
-0.00340429
-0.00209301
-0.000824159
0.000327505
0.001287
0.00198597
0.00236996
0.0024051
0.00208288
0.00142132
0.000463587
-0.000718903
-0.00203975
-0.00352257
-0.00524748
-0.00231408
-0.00374974
-0.00472887
-0.00544381
-0.00605193
-0.00659065
-0.00709113
-0.00758266
-0.00808474
-0.00860742
-0.0091527
-0.00971547
-0.0102843
-0.0108421
-0.0113671
-0.0118337
-0.0122132
-0.0124754
-0.0125898
-0.0125275
-0.0122634
-0.0117781
-0.0110613
-0.0101136
-0.00894942
-0.00759877
-0.00610859
-0.0045424
-0.00297843
-0.00150561
-0.000217416
0.000796344
0.00145884
0.00171564
0.0015423
0.00094783
-2.52666e-05
-0.00129672
-0.00276456
-0.00445365
-0.00645433
-0.00403303
-0.00549237
-0.0064918
-0.00722901
-0.00786634
-0.008444
-0.00899533
-0.00955132
-0.0101325
-0.0107492
-0.0114035
-0.0120897
-0.0127951
-0.013501
-0.0141831
-0.0148125
-0.0153565
-0.0157795
-0.0160447
-0.0161159
-0.0159596
-0.0155476
-0.0148601
-0.0138891
-0.0126414
-0.0111419
-0.0094355
-0.00758859
-0.00568773
-0.00383634
-0.00214836
-0.000738929
0.000287214
0.000848382
0.000897323
0.000428106
-0.000521385
-0.00186299
-0.00347752
-0.00539085
-0.00770414
-0.00603843
-0.00750747
-0.00851938
-0.00927503
-0.00994
-0.010557
-0.0111614
-0.0117858
-0.0124518
-0.0131705
-0.013944
-0.0147662
-0.0156236
-0.016496
-0.017357
-0.0181744
-0.0189113
-0.0195267
-0.0199772
-0.0202183
-0.0202073
-0.0199056
-0.0192824
-0.0183184
-0.0170103
-0.0153744
-0.0134509
-0.011306
-0.0090323
-0.00674707
-0.00458573
-0.00269213
-0.00120473
-0.000240229
0.000122579
-0.000145411
-0.00101703
-0.00239878
-0.00415316
-0.00630694
-0.00897231
-0.00832828
-0.0097935
-0.0108103
-0.0115802
-0.0122705
-0.012926
-0.0135841
-0.014279
-0.0150336
-0.0158598
-0.0167603
-0.0177289
-0.0187518
-0.0198075
-0.0208677
-0.0218973
-0.0228553
-0.0236953
-0.0243668
-0.0248171
-0.024993
-0.0248443
-0.0243275
-0.02341
-0.022075
-0.0203273
-0.0181982
-0.0157498
-0.0130777
-0.0103103
-0.00760414
-0.0051342
-0.00307803
-0.00159583
-0.000808433
-0.000778987
-0.00150003
-0.00287759
-0.00475598
-0.00716298
-0.0102218
-0.0108957
-0.0123447
-0.013359
-0.0141389
-0.0148512
-0.0155425
-0.0162524
-0.017017
-0.0178605
-0.0187964
-0.0198281
-0.02095
-0.0221482
-0.0234005
-0.0246771
-0.0259403
-0.0271453
-0.0282404
-0.0291681
-0.0298669
-0.030273
-0.0303237
-0.029961
-0.0291369
-0.0278188
-0.025996
-0.0236869
-0.0209447
-0.0178629
-0.0145771
-0.0112628
-0.00812628
-0.00538851
-0.00326154
-0.00192019
-0.00147531
-0.00195169
-0.00326301
-0.00523761
-0.00790521
-0.0113995
-0.0137292
-0.0151516
-0.0161569
-0.0169418
-0.017671
-0.018393
-0.0191495
-0.0199787
-0.0209071
-0.0219498
-0.0231117
-0.0243885
-0.0257666
-0.0272238
-0.028729
-0.0302424
-0.0317158
-0.0330924
-0.0343081
-0.0352924
-0.0359707
-0.0362673
-0.0361089
-0.0354303
-0.0341808
-0.0323309
-0.0298814
-0.0268716
-0.0233868
-0.019564
-0.0155927
-0.0117083
-0.00817734
-0.00527079
-0.00323
-0.00222972
-0.00234362
-0.00350555
-0.00553331
-0.00846105
-0.0124323
-0.016813
-0.0182014
-0.0191923
-0.0199765
-0.0207156
-0.0214597
-0.0222529
-0.0231363
-0.0241393
-0.0252795
-0.0265643
-0.0279908
-0.0295468
-0.0312101
-0.0329493
-0.0347228
-0.0364792
-0.0381573
-0.0396863
-0.0409875
-0.0419755
-0.0425612
-0.0426559
-0.0421761
-0.0410513
-0.0392303
-0.0366925
-0.0334576
-0.0295961
-0.0252389
-0.0205822
-0.0158853
-0.0114588
-0.00763731
-0.00474041
-0.00302466
-0.00263337
-0.00353853
-0.0055576
-0.00873436
-0.0132216
-0.0201284
-0.0214796
-0.0224522
-0.0232293
-0.0239683
-0.0247211
-0.0255352
-0.0264554
-0.0275151
-0.0287357
-0.0301277
-0.0316907
-0.0334142
-0.0352769
-0.0372472
-0.0392821
-0.0413277
-0.0433185
-0.0451778
-0.0468187
-0.0481456
-0.0490566
-0.0494473
-0.0492153
-0.0482716
-0.0465391
-0.043973
-0.0405686
-0.0363751
-0.0315087
-0.0261628
-0.0206122
-0.0152058
-0.0103425
-0.00642902
-0.00382182
-0.0027583
-0.0032727
-0.00519885
-0.00859971
-0.0136375
-0.0236548
-0.0249714
-0.0259238
-0.026686
-0.0274111
-0.0281533
-0.0289648
-0.0298958
-0.0309852
-0.0322597
-0.0337339
-0.0354109
-0.0372824
-0.0393285
-0.0415177
-0.0438061
-0.0461373
-0.0484419
-0.0506377
-0.0526304
-0.0543146
-0.0555764
-0.0562966
-0.0563565
-0.0556402
-0.0540521
-0.0515194
-0.0480087
-0.0435417
-0.0382116
-0.0321984
-0.0257806
-0.0193354
-0.0133211
-0.00823592
-0.0045521
-0.00262765
-0.00258947
-0.00431263
-0.00789539
-0.0135118
-0.0273715
-0.028664
-0.029597
-0.0303348
-0.0310269
-0.0317314
-0.0325072
-0.0334124
-0.0344938
-0.0357849
-0.037306
-0.0390646
-0.0410551
-0.0432593
-0.0456459
-0.0481701
-0.0507732
-0.0533821
-0.0559095
-0.0582539
-0.060301
-0.0619253
-0.062994
-0.0633709
-0.0629217
-0.0615252
-0.0590814
-0.0555268
-0.0508509
-0.0451163
-0.0384793
-0.0312085
-0.0236954
-0.0164468
-0.0100497
-0.0051035
-0.00211263
-0.00133248
-0.00271375
-0.00641528
-0.0126291
-0.0312607
-0.0325496
-0.0334669
-0.0341679
-0.034801
-0.0354305
-0.0361256
-0.036956
-0.0379793
-0.0392383
-0.0407604
-0.0425582
-0.0446295
-0.0469577
-0.0495115
-0.052245
-0.0550971
-0.0579909
-0.0608337
-0.0635175
-0.0659194
-0.0679036
-0.0693243
-0.0700295
-0.0698668
-0.068692
-0.0663783
-0.0628315
-0.0580066
-0.0519303
-0.0447256
-0.036638
-0.0280566
-0.01952
-0.0116939
-0.00530775
-0.00103478
0.000702493
-0.000166564
-0.00389896
-0.0107179
-0.0353104
-0.0366297
-0.0375385
-0.0381855
-0.0387234
-0.0392274
-0.0397822
-0.0404741
-0.0413757
-0.0425417
-0.0440083
-0.045794
-0.0478999
-0.0503106
-0.0529945
-0.0559039
-0.0589746
-0.0621253
-0.065258
-0.0682577
-0.0709937
-0.0733201
-0.0750795
-0.0761054
-0.0762283
-0.075284
-0.0731199
-0.0696124
-0.064682
-0.0583167
-0.0505998
-0.0417418
-0.0321123
-0.0222614
-0.0129154
-0.00492723
0.000846912
0.0037794
0.00362651
-1.98966e-05
-0.007438
-0.0395196
-0.0409211
-0.0418317
-0.0423994
-0.0427914
-0.0431016
-0.0434383
-0.0439113
-0.0446129
-0.045613
-0.0469582
-0.048673
-0.0507614
-0.0532085
-0.0559812
-0.0590287
-0.0622826
-0.0656566
-0.0690465
-0.0723302
-0.0753687
-0.0780068
-0.0800756
-0.081396
-0.0817832
-0.0810521
-0.07903
-0.075565
-0.070545
-0.0639194
-0.0557286
-0.0461399
-0.0354883
-0.0243138
-0.0133793
-0.00364429
0.00384894
0.00823531
0.00903886
0.00562936
-0.00236714
-0.0439061
-0.0454648
-0.0463886
-0.0468378
-0.047012
-0.0470365
-0.0470548
-0.0472091
-0.0476175
-0.048368
-0.0495182
-0.0510986
-0.0531149
-0.0555507
-0.0583698
-0.0615165
-0.0649168
-0.0684779
-0.0720884
-0.0756183
-0.0789199
-0.0818284
-0.0841641
-0.0857352
-0.0863425
-0.0857847
-0.0838678
-0.0804155
-0.0752859
-0.0683922
-0.0597322
-0.0494261
-0.0377634
-0.0252545
-0.0126718
-0.00105584
0.00837465
0.0144949
0.0165365
0.0135562
0.00501828
-0.0485187
-0.0503392
-0.0512847
-0.0515518
-0.0514044
-0.0510194
-0.0505912
-0.0503057
-0.0503129
-0.0507209
-0.0515985
-0.0529801
-0.0548706
-0.0572499
-0.0600757
-0.0632854
-0.066797
-0.0705097
-0.0743034
-0.0780392
-0.0815599
-0.0846904
-0.0872401
-0.0890048
-0.0897714
-0.0893226
-0.0874456
-0.083942
-0.0786429
-0.0714288
-0.0622576
-0.0512024
-0.0385014
-0.0246203
-0.0103153
0.00332311
0.0149212
0.0230856
0.026699
0.0243941
0.0153702
-0.0534578
-0.0556822
-0.0566439
-0.0566233
-0.0560026
-0.055041
-0.0540045
-0.0531352
-0.0526198
-0.052587
-0.0531142
-0.0542361
-0.055953
-0.0582369
-0.0610363
-0.0642785
-0.0678713
-0.0717039
-0.0756454
-0.079547
-0.0832409
-0.0865411
-0.0892452
-0.0911365
-0.0919875
-0.0915654
-0.0896392
-0.0859896
-0.0804228
-0.0727898
-0.0630118
-0.0511171
-0.0372916
-0.0219459
-0.00579887
0.0100421
0.0240779
0.0346507
0.0402459
0.0389403
0.0295122
-0.0589139
-0.0617258
-0.0626616
-0.0621755
-0.0608575
-0.0590939
-0.0572469
-0.055626
-0.0544565
-0.0538838
-0.0539882
-0.0547985
-0.0563042
-0.0584645
-0.0612143
-0.0644673
-0.0681184
-0.0720441
-0.0761022
-0.0801319
-0.0839538
-0.0873701
-0.0901659
-0.0921109
-0.0929632
-0.0924734
-0.090392
-0.0864788
-0.0805157
-0.0723251
-0.0617936
-0.0489067
-0.0337976
-0.0168165
0.0013732
0.0196781
0.0365089
0.0499571
0.0580691
0.0582125
0.0485144
-0.0652375
-0.0688549
-0.0696381
-0.0683843
-0.0660369
-0.0631684
-0.0602615
-0.0576987
-0.0557383
-0.0545328
-0.0541541
-0.0546154
-0.0558874
-0.0579098
-0.0605989
-0.0638513
-0.0675463
-0.0715456
-0.0756938
-0.0798173
-0.0837241
-0.0872039
-0.0900285
-0.0919536
-0.0927214
-0.0920653
-0.0897161
-0.0854109
-0.0789062
-0.0699937
-0.058524
-0.0444385
-0.027815
-0.00893535
0.0116088
0.0327704
0.05291
0.0698893
0.0812719
0.0835337
0.0738299
-0.0730752
-0.0777037
-0.0780238
-0.075489
-0.0716203
-0.0672433
-0.0629745
-0.059261
-0.0563758
-0.0544587
-0.053556
-0.0536517
-0.0546865
-0.0565735
-0.0592051
-0.062457
-0.0661901
-0.0702502
-0.0744674
-0.0786545
-0.0826067
-0.0861006
-0.0888946
-0.0907296
-0.0913318
-0.0904163
-0.0876922
-0.0828723
-0.0756834
-0.0658826
-0.053278
-0.0377586
-0.0193366
0.00178817
0.0251245
0.0497128
0.0739202
0.0954097
0.111205
0.116665
0.107557
-0.0836447
-0.0893158
-0.0884721
-0.0837898
-0.0776774
-0.0712621
-0.0652753
-0.0601927
-0.0562638
-0.0535822
-0.0521437
-0.0518838
-0.0527019
-0.0544757
-0.0570683
-0.0603315
-0.0641062
-0.0682212
-0.0724918
-0.0767176
-0.0806809
-0.0841457
-0.0868573
-0.0885426
-0.0889114
-0.0876603
-0.084476
-0.079044
-0.0710577
-0.060232
-0.0463218
-0.0291482
-0.00863529
0.015131
0.0418009
0.0705752
0.0999371
0.127425
0.14946
0.160011
0.152953
-0.0993129
-0.105395
-0.101855
-0.0935809
-0.0841887
-0.0750617
-0.0669583
-0.0603007
-0.0552466
-0.0517929
-0.0498498
-0.0492826
-0.0499351
-0.0516417
-0.054232
-0.0575319
-0.061362
-0.0655346
-0.0698509
-0.0740982
-0.0780476
-0.081452
-0.0840449
-0.0855402
-0.0856332
-0.0840028
-0.0803132
-0.0742223
-0.0653857
-0.0534685
-0.038159
-0.0191879
0.003643
0.0304132
0.0609936
0.0948616
0.130784
0.166455
0.197711
0.216846
0.215266
-0.124754
-0.128658
-0.119166
-0.104952
-0.0908523
-0.0782093
-0.0675953
-0.0592235
-0.0530488
-0.0488987
-0.046554
-0.0457848
-0.0463664
-0.0480842
-0.0507329
-0.0541134
-0.0580274
-0.062273
-0.06664
-0.0709061
-0.0748336
-0.0781669
-0.0806307
-0.0819291
-0.0817456
-0.0797455
-0.0755651
-0.0688445
-0.0591985
-0.0462361
-0.029567
-0.00880769
0.0164051
0.0463875
0.0813456
0.121222
0.165393
0.212132
0.257267
0.29127
0.302516
-0.169205
-0.16313
-0.141275
-0.117548
-0.0968651
-0.0798347
-0.0664352
-0.0563883
-0.0492704
-0.0446434
-0.0421103
-0.0413246
-0.0419867
-0.0438339
-0.0466303
-0.0501566
-0.0542012
-0.0585528
-0.0629943
-0.067298
-0.0712213
-0.074504
-0.0768659
-0.0780055
-0.0776009
-0.0753156
-0.0707336
-0.0635076
-0.0532101
-0.0393947
-0.0215873
0.00072618
0.0281123
0.0612034
0.100692
0.147261
0.201411
0.262868
0.328242
0.387672
0.427062
-0.253609
-0.212997
-0.167112
-0.129314
-0.10008
-0.0781258
-0.0621584
-0.0509232
-0.043376
-0.0387233
-0.0363673
-0.0358486
-0.0368054
-0.038942
-0.0420054
-0.0457678
-0.0500136
-0.05453
-0.0590994
-0.063494
-0.0674716
-0.0707719
-0.0731142
-0.0741952
-0.073686
-0.0712268
-0.0664855
-0.0590027
-0.0483485
-0.0340424
-0.0155386
0.0077978
0.0367392
0.0722732
0.115711
0.168815
0.23393
0.313574
0.407291
0.510211
0.617519
-0.437975
-0.276144
-0.182381
-0.127993
-0.0916281
-0.0669331
-0.0506082
-0.0400245
-0.033424
-0.0297333
-0.0282583
-0.0285118
-0.0301321
-0.032835
-0.036382
-0.040559
-0.0451625
-0.0499897
-0.0548318
-0.0594684
-0.0636635
-0.0671627
-0.0696905
-0.0709485
-0.0706135
-0.06833
-0.0637404
-0.0564147
-0.0459065
-0.0317164
-0.0132654
0.0101439
0.0394038
0.07574
0.120964
0.177932
0.251356
0.348526
0.47831
0.660994
0.939887
-0.805547
-0.338339
-0.154447
-0.0907373
-0.0576835
-0.0377273
-0.0262839
-0.0199632
-0.0167391
-0.0156397
-0.0161568
-0.0179633
-0.0208178
-0.0245245
-0.0289088
-0.0338032
-0.0390381
-0.044437
-0.0498111
-0.0549564
-0.0596507
-0.0636514
-0.0666933
-0.0684876
-0.0687228
-0.0670683
-0.0631366
-0.0565334
-0.0468224
-0.0335156
-0.0160528
0.00623631
0.0342052
0.06903
0.112499
0.167666
0.240496
0.343887
0.506466
0.810225
1.40137
)
;

boundaryField
{
    movingWall
    {
        type            zeroGradient;
    }
    fixedWalls
    {
        type            zeroGradient;
    }
    frontAndBack
    {
        type            empty;
    }
}


// ************************************************************************* //
