/*--------------------------------*- C++ -*----------------------------------*\
| =========                 |                                                 |
| \\      /  F ield         | OpenFOAM: The Open Source CFD Toolbox           |
|  \\    /   O peration     | Version:  2.1.1                                 |
|   \\  /    A nd           | Web:      www.OpenFOAM.org                      |
|    \\/     M anipulation  |                                                 |
\*---------------------------------------------------------------------------*/
FoamFile
{
    version     2.0;
    format      ascii;
    class       volScalarField;
    location    "1.2";
    object      p;
}
// * * * * * * * * * * * * * * * * * * * * * * * * * * * * * * * * * * * * * //

dimensions      [0 2 -2 0 0 0 0];

internalField   nonuniform List<scalar> 
25921
(
1.12081e-08
1.19288e-05
1.29362e-05
-2.26194e-06
-3.41106e-05
-8.17702e-05
-0.000143688
-0.000217992
-0.00030277
-0.00039619
-0.000496546
-0.000602278
-0.000711968
-0.000824341
-0.000938251
-0.00105268
-0.0011667
-0.00127952
-0.00139041
-0.00149874
-0.00160394
-0.00170554
-0.0018031
-0.00189625
-0.00198465
-0.00206804
-0.00214616
-0.00221882
-0.00228583
-0.00234704
-0.00240233
-0.00245158
-0.00249472
-0.00253167
-0.00256236
-0.00258675
-0.0026048
-0.00261646
-0.00262173
-0.00262057
-0.00261298
-0.00259893
-0.00257842
-0.00255145
-0.00251801
-0.0024781
-0.00243172
-0.00237888
-0.00231957
-0.00225383
-0.00218165
-0.00210305
-0.00201806
-0.00192669
-0.00182899
-0.00172499
-0.00161474
-0.00149828
-0.00137567
-0.00124699
-0.00111231
-0.000971712
-0.000825304
-0.000673192
-0.000515499
-0.000352358
-0.000183917
-1.03382e-05
0.000168203
0.000351516
0.000539397
0.000731623
0.000927959
0.00112815
0.00133194
0.00153903
0.00174912
0.00196191
0.00217706
0.00239423
0.00261306
0.00283317
0.00305417
0.00327568
0.00349727
0.00371852
0.00393901
0.00415828
0.0043759
0.0045914
0.00480434
0.00501424
0.00522064
0.00542307
0.00562108
0.0058142
0.00600198
0.00618396
0.00635971
0.0065288
0.00669081
0.00684534
0.00699199
0.00713041
0.00726023
0.00738114
0.00749283
0.00759502
0.00768746
0.00776992
0.00784221
0.00790416
0.00795565
0.00799658
0.00802688
0.00804653
0.00805553
0.00805394
0.00804183
0.00801934
0.00798661
0.00794384
0.00789128
0.0078292
0.0077579
0.00767775
0.00758911
0.00749243
0.00738815
0.00727678
0.00715883
0.00703487
0.0069055
0.00677133
0.00663302
0.00649127
0.00634677
0.00620028
0.00605257
0.00590442
0.00575666
0.00561014
0.00546572
0.00532431
0.00518681
0.00505417
0.00492736
0.00480734
0.00469512
0.00459169
0.00449807
0.00441525
0.00434419
0.00428578
0.00424078
0.0042097
0.00419264
0.00418895
0.00419673
0.00421213
0.00422799
-1.18894e-05
3.37101e-08
-1.286e-06
-1.7259e-05
-4.70998e-05
-9.03288e-05
-0.000145956
-0.000212611
-0.000288799
-0.000373026
-0.000463846
-0.000559899
-0.00065992
-0.00076275
-0.000867331
-0.000972707
-0.00107801
-0.00118248
-0.00128541
-0.00138618
-0.00148426
-0.00157914
-0.00167041
-0.00175769
-0.00184064
-0.00191898
-0.00199245
-0.00206084
-0.00212397
-0.00218166
-0.00223379
-0.00228023
-0.00232088
-0.00235566
-0.0023845
-0.00240733
-0.00242412
-0.00243481
-0.00243938
-0.00243779
-0.00243002
-0.00241606
-0.00239589
-0.0023695
-0.00233689
-0.00229804
-0.00225296
-0.00220166
-0.00214413
-0.00208039
-0.00201045
-0.00193432
-0.00185203
-0.0017636
-0.00166907
-0.00156846
-0.00146184
-0.00134924
-0.00123073
-0.00110638
-0.000976264
-0.000840467
-0.000699089
-0.000552237
-0.000400034
-0.00024261
-8.01108e-05
8.73051e-05
0.000259466
0.000436187
0.000617266
0.000802491
0.00099163
0.00118444
0.00138066
0.00158002
0.00178223
0.00198698
0.00219396
0.00240283
0.00261325
0.00282486
0.00303728
0.00325014
0.00346304
0.00367557
0.00388732
0.00409787
0.00430679
0.00451364
0.004718
0.0049194
0.00511742
0.00531161
0.00550152
0.00568672
0.00586678
0.00604127
0.00620977
0.00637187
0.00652717
0.00667531
0.0068159
0.0069486
0.00707308
0.00718903
0.00729617
0.00739423
0.00748298
0.0075622
0.00763172
0.00769138
0.00774107
0.0077807
0.00781021
0.00782958
0.00783883
0.007838
0.00782718
0.0078065
0.0077761
0.00773619
0.00768699
0.00762878
0.00756185
0.00748654
0.00740323
0.00731233
0.00721428
0.00710954
0.00699864
0.00688211
0.00676052
0.00663447
0.00650458
0.00637151
0.00623595
0.0060986
0.00596019
0.00582148
0.00568325
0.00554629
0.00541143
0.0052795
0.00515137
0.0050279
0.00490998
0.00479851
0.00469436
0.00459845
0.00451164
0.00443477
0.00436861
0.00431385
0.00427101
0.00424036
0.0042218
0.00421459
0.00421721
0.00422799
0.00424384
-1.29114e-05
1.36784e-06
4.66836e-08
-1.58281e-05
-4.42138e-05
-8.45523e-05
-0.000136029
-0.000197498
-0.000267708
-0.000345382
-0.000429265
-0.000518151
-0.000610904
-0.000706466
-0.00080386
-0.000902195
-0.00100066
-0.00109851
-0.00119509
-0.0012898
-0.00138211
-0.00147154
-0.00155767
-0.00164013
-0.00171859
-0.00179275
-0.00186236
-0.0019272
-0.00198707
-0.00204181
-0.00209128
-0.00213534
-0.00217389
-0.00220684
-0.00223411
-0.00225563
-0.00227135
-0.00228122
-0.0022852
-0.00228325
-0.00227535
-0.00226148
-0.00224162
-0.00221576
-0.00218388
-0.00214597
-0.00210205
-0.00205209
-0.00199612
-0.00193413
-0.00186615
-0.00179218
-0.00171224
-0.00162636
-0.00153458
-0.00143693
-0.00133345
-0.0012242
-0.00110923
-0.000988617
-0.000862431
-0.000730761
-0.000593702
-0.000451362
-0.000303858
-0.000151321
6.10715e-06
0.000168272
0.000335005
0.000506126
0.000681438
0.000860733
0.00104379
0.00123037
0.00142021
0.00161306
0.00180864
0.00200665
0.00220677
0.0024087
0.00261209
0.0028166
0.00302187
0.00322752
0.00343319
0.00363847
0.00384297
0.00404629
0.004248
0.0044477
0.00464496
0.00483935
0.00503045
0.00521784
0.00540108
0.00557977
0.00575348
0.0059218
0.00608434
0.0062407
0.00639051
0.0065334
0.00666902
0.00679703
0.00691713
0.00702902
0.00713243
0.0072271
0.00731282
0.00738938
0.00745662
0.0075144
0.00756259
0.00760113
0.00762996
0.00764908
0.00765848
0.00765824
0.00764843
0.00762917
0.00760063
0.00756299
0.00751647
0.00746135
0.0073979
0.00732647
0.00724742
0.00716114
0.00706806
0.00696865
0.00686338
0.00675279
0.00663742
0.00651784
0.00639468
0.00626854
0.00614009
0.00601001
0.005879
0.00574777
0.00561707
0.00548767
0.00536033
0.00523585
0.00511503
0.00499869
0.00488766
0.00478274
0.00468477
0.00459454
0.00451283
0.00444038
0.00437784
0.00432579
0.00428462
0.00425457
0.00423555
0.00422701
0.00422795
0.00423876
0.00425925
2.2811e-06
1.73723e-05
1.59203e-05
-6.72885e-10
-2.76632e-05
-6.63388e-05
-0.000115224
-0.000173268
-0.00023935
-0.000312344
-0.000391127
-0.000474621
-0.000561796
-0.000651684
-0.000743385
-0.000836069
-0.000928974
-0.00102141
-0.00111273
-0.00120238
-0.00128985
-0.00137466
-0.00145642
-0.00153475
-0.00160934
-0.00167988
-0.00174613
-0.00180787
-0.0018649
-0.00191705
-0.00196417
-0.00200613
-0.00204283
-0.00207415
-0.00210003
-0.00212039
-0.00213517
-0.00214431
-0.00214778
-0.00214553
-0.00213754
-0.00212378
-0.00210422
-0.00207886
-0.00204767
-0.00201065
-0.0019678
-0.00191911
-0.00186458
-0.00180423
-0.00173806
-0.00166608
-0.00158832
-0.00150479
-0.00141554
-0.0013206
-0.00122001
-0.00111382
-0.00100209
-0.000884885
-0.000762281
-0.000634363
-0.000501224
-0.000362971
-0.000219717
-7.15911e-05
8.12686e-05
0.000238711
0.000400571
0.000566673
0.000736826
0.000910827
0.00108846
0.00126949
0.00145367
0.00164075
0.00183046
0.0020225
0.00221658
0.00241239
0.0026096
0.00280787
0.00300686
0.00320621
0.00340555
0.0036045
0.00380268
0.0039997
0.00419514
0.00438862
0.00457972
0.00476803
0.00495315
0.00513465
0.00531213
0.00548519
0.00565342
0.00581644
0.00597384
0.00612527
0.00627034
0.00640872
0.00654007
0.00666406
0.00678039
0.00688879
0.00698899
0.00708075
0.00716386
0.00723813
0.0073034
0.00735953
0.00740642
0.00744401
0.00747223
0.00749108
0.00750058
0.00750079
0.00749179
0.0074737
0.00744668
0.00741091
0.00736661
0.00731404
0.00725349
0.00718529
0.00710977
0.00702734
0.0069384
0.0068434
0.00674282
0.00663716
0.00652696
0.00641277
0.00629517
0.00617478
0.00605222
0.00592814
0.00580323
0.00567816
0.00555365
0.00543042
0.00530921
0.00519078
0.00507587
0.00496527
0.00485973
0.00476002
0.00466689
0.00458109
0.00450332
0.00443424
0.00437445
0.00432446
0.00428466
0.00425531
0.00423646
0.00422778
0.0042288
0.00424141
0.00426713
3.42143e-05
4.73272e-05
4.43545e-05
2.75662e-05
-2.0038e-07
-3.81188e-05
-8.53861e-05
-0.000141022
-0.000204011
-0.000273343
-0.000348014
-0.000427054
-0.00050953
-0.000594561
-0.000681321
-0.000769042
-0.000857015
-0.00094459
-0.00103117
-0.00111622
-0.00119925
-0.00127981
-0.00135752
-0.00143201
-0.00150297
-0.00157012
-0.0016332
-0.00169201
-0.00174634
-0.00179602
-0.00184091
-0.00188087
-0.00191578
-0.00194556
-0.00197011
-0.00198936
-0.00200324
-0.0020117
-0.00201469
-0.00201218
-0.00200412
-0.00199049
-0.00197126
-0.00194642
-0.00191595
-0.00187983
-0.00183807
-0.00179065
-0.00173758
-0.00167886
-0.0016145
-0.00154452
-0.00146893
-0.00138776
-0.00130103
-0.00120878
-0.00111106
-0.0010079
-0.000899379
-0.000785545
-0.000666477
-0.000542257
-0.000412976
-0.000278738
-0.000139654
4.15185e-06
0.000152543
0.000305374
0.000462483
0.0006237
0.000788839
0.000957702
0.00113008
0.00130574
0.00148446
0.00166597
0.00185002
0.00203633
0.0022246
0.00241453
0.00260582
0.00279813
0.00299112
0.00318446
0.00337777
0.0035707
0.00376287
0.0039539
0.0041434
0.00433099
0.00451626
0.00469883
0.00487828
0.00505423
0.00522628
0.00539404
0.00555712
0.00571513
0.00586771
0.0060145
0.00615513
0.00628928
0.00641661
0.00653683
0.00664963
0.00675475
0.00685194
0.00694096
0.00702162
0.00709373
0.00715714
0.00721173
0.00725738
0.00729404
0.00732166
0.00734024
0.0073498
0.00735038
0.00734209
0.00732504
0.00729938
0.00726529
0.007223
0.00717275
0.00711483
0.00704954
0.00697724
0.0068983
0.00681312
0.00672214
0.00662581
0.00652464
0.00641913
0.00630982
0.00619727
0.00608208
0.00596485
0.0058462
0.00572678
0.00560725
0.0054883
0.0053706
0.00525487
0.00514181
0.00503214
0.00492659
0.00482586
0.00473069
0.00464175
0.00455974
0.00448532
0.00441908
0.00436159
0.00431332
0.00427469
0.00424598
0.00422741
0.00421886
0.00422022
0.00423435
0.00426372
8.21622e-05
9.08402e-05
8.48647e-05
6.62124e-05
3.7416e-05
-6.72309e-07
-4.72637e-05
-0.000101449
-0.000162308
-0.000228929
-0.000300413
-0.000375885
-0.000454502
-0.000535464
-0.000618016
-0.000701453
-0.000785118
-0.000868407
-0.000950764
-0.00103168
-0.00111069
-0.00118739
-0.00126138
-0.00133234
-0.00139995
-0.00146395
-0.00152409
-0.00158015
-0.00163195
-0.00167931
-0.0017221
-0.00176016
-0.00179341
-0.00182172
-0.00184502
-0.00186322
-0.00187627
-0.0018841
-0.00188666
-0.00188391
-0.00187582
-0.00186235
-0.00184348
-0.00181918
-0.00178944
-0.00175424
-0.00171358
-0.00166744
-0.00161583
-0.00155875
-0.00149621
-0.00142821
-0.00135478
-0.00127594
-0.00119171
-0.00110213
-0.00100724
-0.000907079
-0.000801709
-0.000691189
-0.000575592
-0.000454996
-0.000329491
-0.000199175
-6.41588e-05
7.54386e-05
0.000219485
0.000367839
0.000520344
0.000676833
0.000837127
0.00100103
0.00116835
0.00133885
0.00151231
0.00168849
0.00186712
0.00204795
0.00223068
0.00241502
0.00260067
0.00278731
0.00297462
0.00316225
0.00334986
0.00353709
0.00372359
0.00390898
0.00409288
0.00427493
0.00445473
0.0046319
0.00480605
0.0049768
0.00514377
0.00530657
0.00546483
0.00561818
0.00576626
0.00590872
0.00604522
0.00617542
0.00629903
0.00641573
0.00652524
0.00662731
0.0067217
0.00680817
0.00688655
0.00695664
0.00701831
0.00707144
0.00711592
0.0071517
0.00717874
0.00719702
0.00720659
0.00720749
0.00719981
0.00718366
0.0071592
0.00712661
0.00708611
0.00703793
0.00698235
0.00691969
0.00685027
0.00677446
0.00669265
0.00660528
0.00651277
0.00641562
0.00631431
0.00620938
0.00610136
0.00599081
0.00587833
0.00576452
0.00564999
0.00553539
0.00542135
0.00530854
0.00519762
0.00508928
0.00498417
0.004883
0.00478642
0.00469512
0.00460974
0.00453092
0.00445926
0.00439534
0.00433969
0.00429278
0.00425502
0.00422677
0.00420835
0.0041998
0.00420126
0.0042161
0.00424722
0.000144707
0.000147025
0.000136721
0.00011521
8.44533e-05
4.52811e-05
-1.54616e-06
-5.51976e-05
-0.000114841
-0.000179657
-0.000248836
-0.000321591
-0.000397163
-0.000474827
-0.000553896
-0.000633724
-0.000713709
-0.000793291
-0.000871954
-0.000949226
-0.00102467
-0.0010979
-0.00116855
-0.0012363
-0.00130086
-0.00136198
-0.0014194
-0.00147294
-0.0015224
-0.00156761
-0.00160844
-0.00164476
-0.00167644
-0.0017034
-0.00172553
-0.00174278
-0.00175506
-0.00176232
-0.0017645
-0.00176158
-0.00175349
-0.00174022
-0.00172173
-0.001698
-0.001669
-0.00163473
-0.00159518
-0.00155032
-0.00150017
-0.00144473
-0.00138398
-0.00131796
-0.00124667
-0.00117013
-0.00108836
-0.0010014
-0.000909289
-0.000812066
-0.000709785
-0.000602505
-0.000490294
-0.000373228
-0.000251394
-0.000124887
6.18803e-06
0.000141714
0.000281564
0.0004256
0.000573672
0.000725618
0.000881264
0.00104042
0.0012029
0.00136847
0.00153693
0.00170803
0.00188152
0.00205714
0.00223463
0.00241368
0.00259401
0.00277531
0.00295726
0.00313953
0.00332179
0.00350369
0.00368488
0.003865
0.00404369
0.00422057
0.00439527
0.00456743
0.00473666
0.00490259
0.00506485
0.00522306
0.00537687
0.00552591
0.00566984
0.00580831
0.005941
0.00606757
0.00618774
0.0063012
0.00640769
0.00650696
0.00659876
0.00668289
0.00675916
0.00682739
0.00688745
0.00693922
0.0069826
0.00701755
0.00704402
0.00706201
0.00707155
0.00707269
0.00706551
0.00705015
0.00702673
0.00699545
0.00695651
0.00691015
0.00685664
0.00679628
0.0067294
0.00665635
0.00657753
0.00649333
0.0064042
0.00631059
0.00621299
0.0061119
0.00600786
0.0059014
0.00579309
0.00568351
0.00557325
0.00546293
0.00535316
0.00524458
0.00513781
0.0050335
0.00493229
0.00483482
0.00474173
0.00465365
0.00457118
0.00449494
0.00442548
0.00436335
0.00430907
0.00426309
0.00422584
0.00419774
0.00417917
0.00417028
0.00417138
0.00418596
0.00421704
0.000220123
0.000214622
0.000198866
0.000173583
0.000140001
9.88989e-05
5.10013e-05
-2.94613e-06
-6.2199e-05
-0.000126022
-0.000193691
-0.0002645
-0.000337767
-0.000412837
-0.000489087
-0.000565932
-0.000642819
-0.000719236
-0.000794708
-0.000868796
-0.000941098
-0.00101125
-0.00107891
-0.00114378
-0.00120558
-0.00126407
-0.00131902
-0.00137024
-0.00141755
-0.0014608
-0.00149983
-0.00153452
-0.00156477
-0.00159047
-0.00161155
-0.00162792
-0.00163951
-0.00164627
-0.00164814
-0.00164508
-0.00163705
-0.00162401
-0.00160593
-0.00158279
-0.00155457
-0.00152125
-0.00148281
-0.00143925
-0.00139056
-0.00133674
-0.00127779
-0.00121372
-0.00114455
-0.00107028
-0.000990943
-0.000906568
-0.000817188
-0.000722846
-0.00062359
-0.000519477
-0.000410571
-0.000296946
-0.000178683
-5.58744e-05
7.13787e-05
0.000202964
0.00033876
0.000478632
0.000622437
0.000770016
0.000921202
0.00107581
0.00123366
0.00139454
0.00155822
0.00172449
0.0018931
0.0020638
0.00223631
0.00241037
0.00258568
0.00276195
0.00293887
0.00311612
0.00329336
0.00347027
0.0036465
0.00382171
0.00399553
0.00416761
0.00433758
0.00450509
0.00466976
0.00483123
0.00498913
0.00514312
0.00529282
0.0054379
0.00557801
0.00571281
0.00584199
0.00596523
0.00608225
0.00619274
0.00629646
0.00639315
0.00648259
0.00656457
0.0066389
0.00670542
0.00676399
0.0068145
0.00685687
0.00689103
0.00691696
0.00693465
0.00694412
0.00694544
0.00693868
0.00692397
0.00690145
0.0068713
0.00683371
0.00678894
0.00673723
0.00667888
0.00661422
0.00654359
0.00646737
0.00638595
0.00629976
0.00620925
0.00611489
0.00601716
0.00591657
0.00581366
0.00570897
0.00560305
0.00549649
0.00538985
0.00528374
0.00517876
0.00507551
0.00497461
0.00487666
0.00478227
0.00469204
0.00460657
0.00452642
0.00445218
0.00438438
0.00432354
0.00427014
0.00422466
0.00418754
0.00415919
0.00414006
0.00413037
0.00413049
0.00414386
0.00417332
0.000306638
0.000292243
0.000270136
0.000240286
0.000203107
0.000159318
0.000109601
5.46136e-05
-4.98629e-06
-6.85448e-05
-0.000135417
-0.000204974
-0.000276604
-0.00034972
-0.000423761
-0.000498196
-0.000572527
-0.000646284
-0.000719034
-0.000790374
-0.000859933
-0.000927372
-0.000992381
-0.00105468
-0.001114
-0.00117013
-0.00122284
-0.00127196
-0.00131731
-0.00135875
-0.00139614
-0.00142936
-0.0014583
-0.00148287
-0.00150298
-0.00151856
-0.00152954
-0.00153587
-0.00153749
-0.00153435
-0.00152642
-0.00151366
-0.00149604
-0.00147353
-0.0014461
-0.00141375
-0.00137645
-0.00133419
-0.00128696
-0.00123477
-0.00117761
-0.00111548
-0.00104841
-0.000976389
-0.000899453
-0.000817624
-0.000730934
-0.000639421
-0.000543131
-0.000442117
-0.00033644
-0.000226169
-0.000111383
7.83249e-06
0.000131379
0.00025915
0.000391027
0.000526882
0.000666576
0.000809958
0.000956865
0.00110712
0.00126055
0.00141693
0.00157608
0.00173775
0.00190173
0.00206775
0.00223557
0.00240492
0.0025755
0.00274704
0.00291923
0.00309177
0.00326432
0.00343657
0.00360818
0.00377881
0.00394811
0.00411573
0.00428132
0.00444452
0.00460498
0.00476233
0.00491623
0.00506632
0.00521226
0.00535369
0.0054903
0.00562174
0.00574772
0.00586791
0.00598204
0.00608983
0.00619102
0.00628536
0.00637264
0.00645265
0.00652521
0.00659017
0.00664738
0.00669674
0.00673816
0.00677159
0.006797
0.00681438
0.00682376
0.0068252
0.00681878
0.00680462
0.00678286
0.00675366
0.00671724
0.00667383
0.00662368
0.00656707
0.00650433
0.00643579
0.00636182
0.00628281
0.00619917
0.00611133
0.00601975
0.00592492
0.00582731
0.00572744
0.00562585
0.00552306
0.00541963
0.00531612
0.0052131
0.00511114
0.00501083
0.00491274
0.00481745
0.00472555
0.0046376
0.00455417
0.00447579
0.00440301
0.00433635
0.0042763
0.00422333
0.0041779
0.00414046
0.00411143
0.00409128
0.00408027
0.0040788
0.00409004
0.00411658
0.000402553
0.000378494
0.000349331
0.000314252
0.000272812
0.000225671
0.000173471
0.000116782
5.61764e-05
-7.76989e-06
-7.44871e-05
-0.000143417
-0.000214016
-0.000285762
-0.000358151
-0.000430708
-0.000502982
-0.00057455
-0.000645019
-0.000714022
-0.00078122
-0.000846303
-0.000908986
-0.000969007
-0.00102613
-0.00108014
-0.00113085
-0.00117808
-0.00122166
-0.00126147
-0.00129737
-0.00132926
-0.00135702
-0.00138057
-0.00139982
-0.00141471
-0.00142517
-0.00143115
-0.00143258
-0.00142943
-0.00142166
-0.00140922
-0.00139209
-0.00137024
-0.00134365
-0.00131228
-0.00127614
-0.00123519
-0.00118944
-0.00113888
-0.0010835
-0.00102331
-0.00095832
-0.000888533
-0.000813969
-0.000734651
-0.000650608
-0.000561876
-0.000468495
-0.000370514
-0.000267992
-0.000160993
-4.95905e-05
6.61325e-05
0.000186084
0.00031016
0.000438251
0.000570232
0.000705969
0.000845317
0.00098812
0.00113421
0.0012834
0.00143551
0.00159033
0.00174765
0.00190723
0.00206884
0.00223222
0.00239712
0.00256326
0.00273035
0.00289812
0.00306624
0.00323441
0.00340232
0.00356962
0.003736
0.00390111
0.00406461
0.00422615
0.00438539
0.00454197
0.00469554
0.00484577
0.00499229
0.00513478
0.00527289
0.00540629
0.00553468
0.00565774
0.00577517
0.00588668
0.00599201
0.0060909
0.00618312
0.00626844
0.00634667
0.00641763
0.00648116
0.00653713
0.00658543
0.00662599
0.00665874
0.00668366
0.00670074
0.00671001
0.00671153
0.00670537
0.00669166
0.00667053
0.00664215
0.00660671
0.00656446
0.00651563
0.00646051
0.00639941
0.00633265
0.00626061
0.00618364
0.00610217
0.00601661
0.0059274
0.00583502
0.00573993
0.00564264
0.00554364
0.00544348
0.00534266
0.00524174
0.00514127
0.00504179
0.00494385
0.00484802
0.00475485
0.00466488
0.00457866
0.00449672
0.00441958
0.00434776
0.00428173
0.00422199
0.00416899
0.00412317
0.00408496
0.00405482
0.00403317
0.00402031
0.00401663
0.00402497
0.00404753
0.000506275
0.000472014
0.000435257
0.00039441
0.000348151
0.000297087
0.000241826
0.000182853
0.000120659
5.57438e-05
-1.13917e-05
-8.02575e-05
-0.000150375
-0.000221279
-0.000292527
-0.000363692
-0.000434372
-0.00050419
-0.000572789
-0.000639841
-0.00070504
-0.000768103
-0.000828772
-0.00088681
-0.000942
-0.000994145
-0.00104307
-0.00108861
-0.00113062
-0.00116897
-0.00120355
-0.00123424
-0.00126095
-0.0012836
-0.00130211
-0.00131641
-0.00132644
-0.00133214
-0.00133346
-0.00133037
-0.00132281
-0.00131075
-0.00129416
-0.00127301
-0.00124727
-0.00121693
-0.00118196
-0.00114235
-0.00109808
-0.00104916
-0.000995565
-0.000937306
-0.000874383
-0.000806807
-0.00073459
-0.000657752
-0.000576317
-0.000490318
-0.000399792
-0.000304783
-0.000205345
-0.000101538
6.56929e-06
0.000118898
0.000235361
0.000355862
0.000480293
0.000608537
0.000740465
0.000875938
0.00101481
0.00115691
0.00130207
0.0014501
0.0016008
0.00175398
0.0019094
0.00206683
0.00222603
0.00238674
0.00254871
0.00271164
0.00287526
0.00303927
0.00320336
0.00336723
0.00353055
0.00369299
0.00385423
0.00401393
0.00417175
0.00432734
0.00448037
0.00463048
0.00477735
0.00492062
0.00505997
0.00519506
0.00532557
0.00545119
0.00557161
0.00568654
0.0057957
0.00589882
0.00599565
0.00608595
0.00616952
0.00624614
0.00631566
0.00637791
0.00643276
0.00648012
0.00651989
0.00655202
0.00657648
0.00659327
0.00660242
0.00660398
0.00659803
0.00658467
0.00656406
0.00653635
0.00650175
0.00646046
0.00641274
0.00635887
0.00629914
0.00623389
0.00616345
0.00608821
0.00600855
0.00592489
0.00583766
0.00574731
0.00565431
0.00555914
0.00546229
0.00536426
0.00526557
0.00516674
0.0050683
0.00497078
0.0048747
0.0047806
0.00468901
0.00460045
0.00451544
0.00443449
0.00435808
0.00428672
0.00422086
0.00416097
0.00410748
0.00406083
0.00402143
0.00398971
0.0039661
0.00395089
0.00394446
0.00394921
0.00396696
0.000616332
0.000571503
0.000526754
0.00047971
0.000428171
0.000372701
0.000313883
0.000252119
0.000187823
0.000121426
5.33622e-05
-1.59429e-05
-8.60708e-05
-0.000156615
-0.000227184
-0.000297403
-0.000366917
-0.000435388
-0.000502503
-0.000567966
-0.000631505
-0.000692868
-0.00075182
-0.000808151
-0.000861663
-0.000912181
-0.000959542
-0.0010036
-0.00104422
-0.00108129
-0.0011147
-0.00114435
-0.00117015
-0.00119202
-0.00120989
-0.0012237
-0.00123339
-0.0012389
-0.00124019
-0.00123722
-0.00122993
-0.00121831
-0.00120231
-0.0011819
-0.00115706
-0.00112777
-0.00109401
-0.00105575
-0.00101299
-0.000965705
-0.0009139
-0.000857567
-0.000796708
-0.000731327
-0.000661435
-0.000587048
-0.000508186
-0.000424876
-0.000337153
-0.000245057
-0.000148635
-4.7944e-05
5.69521e-05
0.000165981
0.000279059
0.000396096
0.000516991
0.00064163
0.000769892
0.000901644
0.00103674
0.00117503
0.00131633
0.00146048
0.00160728
0.00175653
0.00190801
0.0020615
0.00221676
0.00237354
0.00253159
0.00269063
0.00285038
0.00301056
0.00317086
0.00333099
0.00349062
0.00364944
0.00380712
0.00396333
0.00411773
0.00427
0.00441979
0.00456676
0.00471058
0.00485091
0.00498742
0.00511979
0.0052477
0.00537083
0.00548889
0.00560158
0.00570864
0.00580978
0.00590477
0.00599338
0.00607538
0.00615059
0.00621883
0.00627995
0.00633381
0.00638032
0.00641939
0.00645096
0.00647501
0.00649153
0.00650055
0.00650212
0.00649632
0.00648325
0.00646306
0.0064359
0.00640197
0.00636148
0.00631468
0.00626183
0.00620323
0.00613921
0.0060701
0.00599626
0.00591809
0.00583598
0.00575035
0.00566165
0.00557033
0.00547686
0.00538171
0.00528537
0.00518834
0.00509113
0.00499424
0.00489818
0.00480347
0.0047106
0.0046201
0.00453246
0.00444816
0.00436771
0.00429157
0.0042202
0.00415405
0.00409357
0.00403916
0.00399124
0.00395023
0.00391651
0.00389049
0.00387247
0.0038628
0.00386342
0.00387569
0.000731367
0.000675737
0.000622706
0.000569132
0.000511938
0.000451661
0.000388863
0.000323872
0.000257028
0.0001887
0.000119256
4.9063e-05
-2.15175e-05
-9.21337e-05
-0.000162445
-0.000232125
-0.000300861
-0.000368361
-0.000434347
-0.00049856
-0.000560759
-0.000620721
-0.00067824
-0.000733128
-0.000785211
-0.000834331
-0.000880345
-0.000923121
-0.000962542
-0.000998499
-0.0010309
-0.00105964
-0.00108466
-0.00110588
-0.00112323
-0.00113666
-0.0011461
-0.00115152
-0.00115285
-0.00115007
-0.00114313
-0.001132
-0.00111664
-0.00109703
-0.00107313
-0.00104493
-0.0010124
-0.000975515
-0.000934269
-0.000888646
-0.000838635
-0.000784229
-0.000725427
-0.00066223
-0.000594644
-0.000522682
-0.000446359
-0.000365699
-0.000280732
-0.000191492
-9.80227e-05
-3.75534e-07
0.000101391
0.000207209
0.000317002
0.000430684
0.00054816
0.000669323
0.000794056
0.000922233
0.00105372
0.00118835
0.00132598
0.00146644
0.00160952
0.00175505
0.00190281
0.00205259
0.00220415
0.00235724
0.00251162
0.00266703
0.00282318
0.0029798
0.0031366
0.00329327
0.0034495
0.00360499
0.00375941
0.00391243
0.00406373
0.00421297
0.00435983
0.00450396
0.00464503
0.00478272
0.00491669
0.00504663
0.00517221
0.00529314
0.00540911
0.00551982
0.00562502
0.00572443
0.00581781
0.00590493
0.00598557
0.00605954
0.00612666
0.00618679
0.00623979
0.00628557
0.00632402
0.00635511
0.00637879
0.00639507
0.00640397
0.00640553
0.00639984
0.006387
0.00636714
0.00634042
0.00630703
0.00626718
0.00622111
0.00616909
0.0061114
0.00604836
0.0059803
0.00590758
0.00583058
0.00574969
0.00566532
0.00557791
0.00548788
0.00539571
0.00530185
0.00520678
0.00511097
0.00501493
0.00491914
0.00482408
0.00473026
0.00463817
0.00454828
0.00446108
0.00437704
0.00429663
0.0042203
0.00414848
0.00408161
0.0040201
0.00396436
0.00391478
0.00387174
0.00383561
0.00380678
0.00378553
0.0037722
0.00376822
0.0037745
0.000850136
0.000783567
0.000722052
0.000661694
0.000598549
0.000533133
0.000466001
0.00039741
0.000327635
0.000256982
0.000185761
0.000114284
4.28566e-05
-2.82194e-05
-9.86526e-05
-0.000168162
-0.00023648
-0.000303352
-0.000368538
-0.000431815
-0.000492972
-0.000551818
-0.000608171
-0.000661869
-0.000712759
-0.000760704
-0.000805578
-0.000847266
-0.000885665
-0.000920679
-0.000952223
-0.000980218
-0.00100459
-0.00102528
-0.00104223
-0.00105538
-0.00106468
-0.00107008
-0.00107155
-0.00106904
-0.00106251
-0.00105193
-0.00103727
-0.0010185
-0.000995594
-0.000968518
-0.000937252
-0.000901777
-0.000862072
-0.000818123
-0.000769915
-0.000717441
-0.000660693
-0.000599671
-0.000534376
-0.000464816
-0.000391004
-0.000312957
-0.000230701
-0.000144265
-5.36886e-05
4.09832e-05
0.000139697
0.00024239
0.000348992
0.000459423
0.000573593
0.000691402
0.000812739
0.000937483
0.0010655
0.00119665
0.00133078
0.00146772
0.00160728
0.00174929
0.00189354
0.00203982
0.0021879
0.00233754
0.0024885
0.00264053
0.00279334
0.00294667
0.00310023
0.00325372
0.00340684
0.00355929
0.00371073
0.00386086
0.00400935
0.00415586
0.00430008
0.00444166
0.00458029
0.00471562
0.00484734
0.00497513
0.00509867
0.00521766
0.0053318
0.0054408
0.00554438
0.00564229
0.00573428
0.00582012
0.00589959
0.0059725
0.00603868
0.00609797
0.00615025
0.0061954
0.00623334
0.00626401
0.00628739
0.00630346
0.00631225
0.0063138
0.00630819
0.00629552
0.00627591
0.00624954
0.00621657
0.00617722
0.00613173
0.00608034
0.00602336
0.00596107
0.00589382
0.00582196
0.00574584
0.00566586
0.00558242
0.00549594
0.00540686
0.00531561
0.00522265
0.00512844
0.00503345
0.00493816
0.00484303
0.00474855
0.00465518
0.00456341
0.00447369
0.0043865
0.00430228
0.00422147
0.00414452
0.00407183
0.00400383
0.0039409
0.00388343
0.00383179
0.00378635
0.00374744
0.00371542
0.00369058
0.00367322
0.00366427
0.00366416
0.000971491
0.000893918
0.000823788
0.000756456
0.000687127
0.000616307
0.000544548
0.000472044
0.000399007
0.000325689
0.000252345
0.000179233
0.00010661
3.4727e-05
-3.61696e-05
-0.000105843
-0.000174067
-0.000240626
-0.000305317
-0.000367949
-0.000428344
-0.000486338
-0.000541778
-0.000594525
-0.000644448
-0.000691431
-0.000735366
-0.000776155
-0.000813709
-0.000847946
-0.000878792
-0.000906179
-0.000930046
-0.000950335
-0.000966993
-0.000979973
-0.000989228
-0.000994717
-0.000996399
-0.000994238
-0.000988197
-0.000978244
-0.000964346
-0.000946473
-0.000924597
-0.000898691
-0.00086873
-0.00083469
-0.000796552
-0.000754295
-0.000707906
-0.00065737
-0.000602678
-0.000543825
-0.000480809
-0.000413633
-0.000342305
-0.000266839
-0.000187253
-0.000103574
-1.58337e-05
7.59269e-05
0.00017166
0.00027131
0.000374811
0.00048209
0.000593062
0.000707633
0.0008257
0.000947147
0.00107185
0.00119967
0.00133045
0.00146405
0.00160028
0.00173897
0.00187991
0.00202289
0.00216771
0.00231413
0.00246191
0.00261079
0.00276052
0.00291081
0.0030614
0.00321198
0.00336226
0.00351194
0.00366069
0.00380821
0.00395417
0.00409825
0.00424012
0.00437944
0.00451591
0.00464917
0.00477893
0.00490484
0.00502661
0.00514393
0.0052565
0.00536402
0.00546624
0.00556288
0.0056537
0.00573847
0.00581697
0.00588901
0.00595441
0.00601302
0.0060647
0.00610935
0.00614688
0.00617722
0.00620036
0.00621627
0.00622497
0.00622651
0.00622097
0.00620843
0.00618903
0.00616291
0.00613027
0.0060913
0.00604623
0.00599532
0.00593884
0.00587711
0.00581044
0.00573917
0.00566367
0.00558432
0.00550151
0.00541565
0.00532716
0.00523649
0.00514407
0.00505035
0.00495578
0.00486084
0.00476597
0.00467165
0.00457832
0.00448645
0.00439649
0.00430888
0.00422405
0.00414245
0.00406446
0.00399051
0.00392098
0.00385625
0.00379669
0.00374263
0.00369443
0.0036524
0.00361686
0.00358809
0.00356641
0.00355219
0.0035454
0.00109437
0.00100579
0.000926964
0.000852523
0.000776833
0.000700397
0.00062377
0.00054709
0.000470514
0.000394238
0.00031847
0.000243418
0.00016929
9.6292e-05
2.46259e-05
-4.55133e-05
-0.000113939
-0.000180472
-0.000244946
-0.000307203
-0.000367095
-0.000424486
-0.000479251
-0.000531272
-0.000580444
-0.00062667
-0.000669859
-0.000709932
-0.000746813
-0.000780435
-0.000810737
-0.00083766
-0.000861153
-0.000881166
-0.000897655
-0.000910576
-0.000919891
-0.00092556
-0.000927548
-0.00092582
-0.000920341
-0.000911081
-0.000898008
-0.000881091
-0.000860301
-0.000835611
-0.000806995
-0.000774426
-0.000737883
-0.000697343
-0.000652788
-0.000604202
-0.000551571
-0.000494886
-0.00043414
-0.000369333
-0.000300468
-0.000227552
-0.000150601
-6.96337e-05
1.53216e-05
0.000104231
0.000197052
0.000293735
0.00039422
0.00049844
0.000606317
0.000717763
0.00083268
0.000950961
0.00107248
0.00119712
0.00132473
0.00145515
0.00158822
0.00172376
0.00186158
0.00200149
0.00214326
0.00228667
0.00243149
0.00257747
0.00272435
0.00287186
0.00301973
0.00316766
0.00331537
0.00346254
0.00360888
0.00375407
0.00389778
0.0040397
0.0041795
0.00431686
0.00445144
0.00458292
0.00471098
0.0048353
0.00495556
0.00507147
0.00518272
0.00528903
0.00539012
0.00548573
0.0055756
0.00565951
0.00573724
0.00580859
0.00587339
0.00593147
0.0059827
0.00602697
0.0060642
0.00609431
0.00611727
0.00613307