/*--------------------------------*- C++ -*----------------------------------*\
| =========                 |                                                 |
| \\      /  F ield         | OpenFOAM: The Open Source CFD Toolbox           |
|  \\    /   O peration     | Version:  2.1.1                                 |
|   \\  /    A nd           | Web:      www.OpenFOAM.org                      |
|    \\/     M anipulation  |                                                 |
\*---------------------------------------------------------------------------*/
FoamFile
{
    version     2.0;
    format      ascii;
    class       surfaceScalarField;
    location    "1.2";
    object      phi;
}
// * * * * * * * * * * * * * * * * * * * * * * * * * * * * * * * * * * * * * //

dimensions      [0 3 -1 0 0 0 0];

internalField   nonuniform List<scalar> 
51520
(
2.04606e-12
-2.04943e-12
1.06674e-11
-8.62136e-12
2.30006e-11
-1.23332e-11
3.61811e-11
-1.31805e-11
4.82229e-11
-1.20418e-11
5.77883e-11
-9.56537e-12
6.39928e-11
-6.20459e-12
6.62726e-11
-2.27979e-12
6.42872e-11
1.98542e-12
5.78525e-11
6.4347e-12
4.68959e-11
1.09566e-11
3.14252e-11
1.54707e-11
1.15064e-11
1.99189e-11
-1.27519e-11
2.42583e-11
-4.12102e-11
2.84583e-11
-7.37069e-11
3.24966e-11
-1.10065e-10
3.6358e-11
-1.50097e-10
4.0032e-11
-1.93609e-10
4.35124e-11
-2.40405e-10
4.67958e-11
-2.90287e-10
4.98816e-11
-3.43057e-10
5.27708e-11
-3.98523e-10
5.5466e-11
-4.56494e-10
5.79707e-11
-5.16784e-10
6.02896e-11
-5.79211e-10
6.24277e-11
-6.43602e-10
6.43905e-11
-7.09786e-10
6.61838e-11
-7.77599e-10
6.78135e-11
-8.46885e-10
6.92856e-11
-9.17491e-10
7.06059e-11
-9.89271e-10
7.17801e-11
-1.06208e-09
7.28138e-11
-1.1358e-09
7.37123e-11
-1.21028e-09
7.44806e-11
-1.2854e-09
7.51233e-11
-1.36105e-09
7.56448e-11
-1.43709e-09
7.60492e-11
-1.51343e-09
7.634e-11
-1.58996e-09
7.65205e-11
-1.66655e-09
7.65937e-11
-1.74311e-09
7.65622e-11
-1.81954e-09
7.64281e-11
-1.89573e-09
7.61933e-11
-1.97159e-09
7.58595e-11
-2.04702e-09
7.54278e-11
-2.12192e-09
7.48992e-11
-2.19619e-09
7.42746e-11
-2.26975e-09
7.35543e-11
-2.34249e-09
7.27386e-11
-2.41431e-09
7.18277e-11
-2.48514e-09
7.08214e-11
-2.55486e-09
6.97196e-11
-2.62338e-09
6.85219e-11
-2.69061e-09
6.7228e-11
-2.75644e-09
6.58375e-11
-2.82079e-09
6.43498e-11
-2.88356e-09
6.27647e-11
-2.94464e-09
6.10817e-11
-3.00394e-09
5.93004e-11
-3.06136e-09
5.74207e-11
-3.1168e-09
5.54423e-11
-3.17017e-09
5.33655e-11
-3.22136e-09
5.11903e-11
-3.27028e-09
4.89172e-11
-3.31682e-09
4.65468e-11
-3.3609e-09
4.40799e-11
-3.40242e-09
4.15177e-11
-3.44128e-09
3.88616e-11
-3.47739e-09
3.61132e-11
-3.51067e-09
3.32747e-11
-3.54102e-09
3.03483e-11
-3.56835e-09
2.73367e-11
-3.5926e-09
2.4243e-11
-3.61367e-09
2.10706e-11
-3.63149e-09
1.78233e-11
-3.646e-09
1.45053e-11
-3.65712e-09
1.11211e-11
-3.66479e-09
7.67567e-12
-3.66897e-09
4.17431e-12
-3.66959e-09
6.22759e-13
-3.66662e-09
-2.97288e-12
-3.66001e-09
-6.60615e-12
-3.64974e-09
-1.02702e-11
-3.63578e-09
-1.39579e-11
-3.61812e-09
-1.76616e-11
-3.59675e-09
-2.13735e-11
-3.57166e-09
-2.50854e-11
-3.54287e-09
-2.87889e-11
-3.5104e-09
-3.24752e-11
-3.47426e-09
-3.61355e-11
-3.4345e-09
-3.97605e-11
-3.39116e-09
-4.33408e-11
-3.34429e-09
-4.6867e-11
-3.29397e-09
-5.03295e-11
-3.24025e-09
-5.37185e-11
-3.18322e-09
-5.70243e-11
-3.12298e-09
-6.02372e-11
-3.05964e-09
-6.33473e-11
-2.99329e-09
-6.63451e-11
-2.92407e-09
-6.9221e-11
-2.85211e-09
-7.19656e-11
-2.77754e-09
-7.45698e-11
-2.70051e-09
-7.70245e-11
-2.62119e-09
-7.93212e-11
-2.53974e-09
-8.14515e-11
-2.45633e-09
-8.34075e-11
-2.37115e-09
-8.51815e-11
-2.28438e-09
-8.67666e-11
-2.19623e-09
-8.8156e-11
-2.10688e-09
-8.93438e-11
-2.01656e-09
-9.03244e-11
-1.92547e-09
-9.10928e-11
-1.83382e-09
-9.16448e-11
-1.74184e-09
-9.19768e-11
-1.64976e-09
-9.20858e-11
-1.55779e-09
-9.19695e-11
-1.46616e-09
-9.16264e-11
-1.37511e-09
-9.10558e-11
-1.28485e-09
-9.02576e-11
-1.19562e-09
-8.92326e-11
-1.10763e-09
-8.79822e-11
-1.02113e-09
-8.65088e-11
-9.3631e-10
-8.48155e-11
-8.53404e-10
-8.29062e-11
-7.72619e-10
-8.07854e-11
-6.9416e-10
-7.84586e-11
-6.18228e-10
-7.59321e-11
-5.45015e-10
-7.32128e-11
-4.74707e-10
-7.03084e-11
-4.07479e-10
-6.72274e-11
-3.435e-10
-6.39792e-11
-2.82926e-10
-6.05737e-11
-2.25905e-10
-5.70218e-11
-1.7257e-10
-5.3335e-11
-1.23044e-10
-4.95257e-11
-7.74367e-11
-4.56073e-11
-3.58428e-11
-4.15939e-11
1.65785e-12
-3.75007e-11
3.50019e-11
-3.33441e-11
6.41432e-11
-2.91413e-11
8.90548e-11
-2.49115e-11
1.0973e-10
-2.06753e-11
1.26185e-10
-1.64552e-11
1.38462e-10
-1.22763e-11
1.46628e-10
-8.16636e-12
1.50785e-10
-4.15707e-12
1.5107e-10
-2.84641e-13
1.4766e-10
3.40924e-12
1.40785e-10
6.87492e-12
1.30732e-10
1.00534e-11
1.17859e-10
1.28726e-11
1.02616e-10
1.52437e-11
8.55609e-11
1.70548e-11
6.73979e-11
1.8163e-11
4.90135e-11
1.83845e-11
3.15254e-11
1.74881e-11
1.63211e-11
1.52042e-11
5.06897e-12
1.12522e-11
-4.48657e-13
5.51772e-12
-4.48551e-13
8.62299e-12
-1.06724e-11
2.82199e-11
-2.82183e-11
5.33301e-11
-3.74434e-11
7.90475e-11
-3.88979e-11
1.01369e-10
-3.43636e-11
1.17258e-10
-2.54538e-11
1.24508e-10
-1.34547e-11
1.21582e-10
6.46058e-13
1.07461e-10
1.61063e-11
8.15212e-11
3.23746e-11
4.344e-11
4.90378e-11
-6.8761e-12
6.57869e-11
-6.93472e-11
8.239e-11
-1.43762e-10
9.86732e-11
-2.29811e-10
1.14507e-10
-3.27109e-10
1.29795e-10
-4.35218e-10
1.44467e-10
-5.53662e-10
1.58476e-10
-6.81937e-10
1.71788e-10
-8.19524e-10
1.84382e-10
-9.65892e-10
1.9625e-10
-1.12051e-09
2.0739e-10
-1.28285e-09
2.17805e-10
-1.45238e-09
2.27505e-10
-1.6286e-09
2.36504e-10
-1.81099e-09
2.44816e-10
-1.99906e-09
2.52461e-10
-2.19233e-09
2.59457e-10
-2.39034e-09
2.65825e-10
-2.59264e-09
2.71584e-10
-2.79879e-09
2.76756e-10
-3.00837e-09
2.81362e-10
-3.22098e-09
2.8542e-10
-3.43622e-09
2.8895e-10
-3.65371e-09
2.9197e-10
-3.87308e-09
2.94497e-10
-4.09398e-09
2.96548e-10
-4.31607e-09
2.98136e-10
-4.53901e-09
2.99276e-10
-4.76246e-09
2.9998e-10
-4.98613e-09
3.00258e-10
-5.20969e-09
3.00121e-10
-5.43284e-09
2.99577e-10
-5.65528e-09
2.98634e-10
-5.87671e-09
2.97296e-10
-6.09686e-09
2.9557e-10
-6.31542e-09
2.93459e-10
-6.53211e-09
2.90967e-10
-6.74665e-09
2.88095e-10
-6.95876e-09
2.84845e-10
-7.16815e-09
2.81218e-10
-7.37454e-09
2.77214e-10
-7.57765e-09
2.72832e-10
-7.7772e-09
2.68072e-10
-7.97291e-09
2.62933e-10
-8.16448e-09
2.57414e-10
-8.35165e-09
2.51514e-10
-8.53411e-09
2.45231e-10
-8.7116e-09
2.38565e-10
-8.88381e-09
2.31515e-10
-9.05047e-09
2.24081e-10
-9.21129e-09
2.16263e-10
-9.36599e-09
2.08061e-10
-9.51428e-09
1.99478e-10
-9.65587e-09
1.90514e-10
-9.7905e-09
1.81174e-10
-9.91788e-09
1.71461e-10
-1.00377e-08
1.61381e-10
-1.01498e-08
1.50938e-10
-1.02538e-08
1.40141e-10
-1.03496e-08
1.28997e-10
-1.04367e-08
1.17517e-10
-1.05151e-08
1.05711e-10
-1.05845e-08
9.35908e-11
-1.06446e-08
8.1171e-11
-1.06952e-08
6.84663e-11
-1.07362e-08
5.54933e-11
-1.07673e-08
4.22699e-11
-1.07885e-08
2.88156e-11
-1.07995e-08
1.51512e-11
-1.08001e-08
1.29919e-12
-1.07904e-08
-1.27168e-11
-1.07701e-08
-2.68714e-11
-1.07393e-08
-4.11382e-11
-1.06977e-08
-5.54893e-11
-1.06455e-08
-6.98954e-11
-1.05825e-08
-8.43262e-11
-1.05089e-08
-9.87501e-11
-1.04245e-08
-1.13135e-10
-1.03296e-08
-1.27446e-10
-1.0224e-08
-1.4165e-10
-1.01081e-08
-1.55712e-10
-9.98184e-09
-1.69594e-10
-9.84545e-09
-1.83262e-10
-9.6991e-09
-1.96678e-10
-9.54301e-09
-2.09805e-10
-9.37743e-09
-2.22605e-10
-9.20263e-09
-2.35042e-10
-9.0189e-09
-2.47078e-10
-8.82657e-09
-2.58676e-10
-8.62599e-09
-2.698e-10
-8.41754e-09
-2.80415e-10
-8.20162e-09
-2.90485e-10
-7.97867e-09
-2.99976e-10
-7.74914e-09
-3.08855e-10
-7.5135e-09
-3.17091e-10
-7.27225e-09
-3.24654e-10
-7.02592e-09
-3.31514e-10
-6.77504e-09
-3.37644e-10
-6.52018e-09
-3.43021e-10
-6.2619e-09
-3.4762e-10
-6.0008e-09
-3.51421e-10
-5.73749e-09
-3.54406e-10
-5.47258e-09
-3.56557e-10
-5.20669e-09
-3.57862e-10
-4.94047e-09
-3.58309e-10
-4.67455e-09
-3.5789e-10
-4.40957e-09
-3.56599e-10
-4.1462e-09
-3.54434e-10
-3.88506e-09
-3.51395e-10
-3.62681e-09
-3.47484e-10
-3.37208e-09
-3.42708e-10
-3.12151e-09
-3.37076e-10
-2.87573e-09
-3.306e-10
-2.63534e-09
-3.23295e-10
-2.40095e-09
-3.1518e-10
-2.17313e-09
-3.06274e-10
-1.95246e-09
-2.96603e-10
-1.73948e-09
-2.86194e-10
-1.53471e-09
-2.75077e-10
-1.33865e-09
-2.63285e-10
-1.15178e-09
-2.50854e-10
-9.74526e-10
-2.37824e-10
-8.07311e-10
-2.24237e-10
-6.50508e-10
-2.10138e-10
-5.04458e-10
-1.95576e-10
-3.69462e-10
-1.80603e-10
-2.4578e-10
-1.65276e-10
-1.33627e-10
-1.49654e-10
-3.31692e-11
-1.33802e-10
5.54772e-11
-1.17788e-10
1.32253e-10
-1.01688e-10
1.97161e-10
-8.55829e-11
2.50268e-10
-6.95624e-11
2.91717e-10
-5.37249e-11
3.2173e-10
-3.81799e-11
3.40624e-10
-2.30506e-11
3.48816e-10
-8.47713e-12
3.46846e-10
5.37978e-12
3.35387e-10
1.83335e-11
3.15277e-10
3.0164e-11
2.87539e-10
4.06106e-11
2.53422e-10
4.93602e-11
2.14442e-10
5.60353e-11
1.72425e-10
6.01795e-11
1.29561e-10
6.12483e-11
8.84303e-11
5.86192e-11
5.19781e-11
5.16565e-11
2.33646e-11
3.98655e-11
5.5068e-12
2.33754e-11
5.05832e-12
1.23615e-11
-2.3034e-11
3.75178e-11
-5.33746e-11
6.76929e-11
-6.76185e-11
9.67105e-11
-6.79156e-11
1.19492e-10
-5.71455e-11
1.32024e-10
-3.79854e-11
1.31253e-10
-1.26838e-11
1.14947e-10
1.69518e-11
8.15492e-11
4.95045e-11
3.00474e-11
8.38764e-11
-4.01334e-11
1.19219e-10
-1.29226e-10
1.54879e-10
-2.37193e-10
1.90357e-10
-3.63786e-10
2.25267e-10
-5.08595e-10
2.59316e-10
-6.71085e-10
2.92285e-10
-8.50626e-10
3.24008e-10
-1.04652e-09
3.54368e-10
-1.25801e-09
3.83281e-10
-1.48432e-09
4.10692e-10
-1.72464e-09
4.36571e-10
-1.97816e-09
4.60905e-10
-2.24405e-09
4.83694e-10
-2.52149e-09
5.04952e-10
-2.80969e-09
5.247e-10
-3.10784e-09
5.42968e-10
-3.41517e-09
5.59789e-10
-3.73091e-09
5.752e-10
-4.05433e-09
5.89242e-10
-4.3847e-09
6.01956e-10
-4.72133e-09
6.13383e-10
-5.06353e-09
6.23564e-10
-5.41065e-09
6.32542e-10
-5.76206e-09
6.40354e-10
-6.11713e-09
6.47039e-10
-6.47526e-09
6.52633e-10
-6.83588e-09
6.57168e-10
-7.19842e-09
6.60678e-10
-7.56234e-09
6.63189e-10
-7.92709e-09
6.64729e-10
-8.29215e-09
6.65321e-10
-8.65701e-09
6.64985e-10
-9.02118e-09
6.63741e-10
-9.38415e-09
6.61603e-10
-9.74544e-09
6.58585e-10
-1.01046e-08
6.54698e-10
-1.04611e-08
6.49952e-10
-1.08144e-08
6.44353e-10
-1.11643e-08
6.37907e-10
-1.151e-08
6.30616e-10
-1.18513e-08
6.22484e-10
-1.21876e-08
6.13512e-10
-1.25185e-08
6.03699e-10
-1.28434e-08
5.93044e-10
-1.3162e-08
5.81547e-10
-1.34738e-08
5.69207e-10
-1.37783e-08
5.5602e-10
-1.40751e-08
5.41986e-10
-1.43636e-08
5.27105e-10
-1.46435e-08
5.11374e-10
-1.49142e-08
4.94796e-10
-1.51753e-08
4.7737e-10
-1.54264e-08
4.59101e-10
-1.56669e-08
4.39991e-10
-1.58964e-08
4.20047e-10
-1.61145e-08
3.99276e-10
-1.63207e-08
3.77688e-10
-1.65146e-08
3.55295e-10
-1.66958e-08
3.32111e-10
-1.68638e-08
3.08152e-10
-1.70183e-08
2.83437e-10
-1.71587e-08
2.57989e-10
-1.72849e-08
2.31832e-10
-1.73963e-08
2.04994e-10
-1.74926e-08
1.77506e-10
-1.75735e-08
1.49401e-10
-1.76388e-08
1.20716e-10
-1.7688e-08
9.14915e-11
-1.77209e-08
6.17703e-11
-1.77374e-08
3.15986e-11
-1.77371e-08
1.02599e-12
-1.77199e-08
-2.98951e-11
-1.76857e-08
-6.11092e-11
-1.76343e-08
-9.25579e-11
-1.75656e-08
-1.2418e-10
-1.74796e-08
-1.55911e-10
-1.73762e-08
-1.87685e-10
-1.72555e-08
-2.19432e-10
-1.71176e-08
-2.51082e-10
-1.69625e-08
-2.82561e-10
-1.67903e-08
-3.13793e-10
-1.66013e-08
-3.44703e-10
-1.63957e-08
-3.75211e-10
-1.61737e-08
-4.05238e-10
-1.59357e-08
-4.34704e-10
-1.5682e-08
-4.63529e-10
-1.5413e-08
-4.9163e-10
-1.51291e-08
-5.18928e-10
-1.48308e-08
-5.45341e-10
-1.45187e-08
-5.7079e-10
-1.41933e-08
-5.95195e-10
-1.38552e-08
-6.1848e-10
-1.35052e-08
-6.40567e-10
-1.31437e-08
-6.61384e-10
-1.27717e-08
-6.80859e-10
-1.23899e-08
-6.98924e-10
-1.19991e-08
-7.15513e-10
-1.16e-08
-7.30565e-10
-1.11936e-08
-7.4402e-10
-1.07808e-08
-7.55826e-10
-1.03625e-08
-7.65932e-10
-9.93964e-09
-7.74293e-10
-9.51317e-09
-7.80869e-10
-9.0841e-09
-7.85626e-10
-8.65343e-09
-7.88533e-10
-8.22217e-09
-7.89568e-10
-7.79135e-09
-7.88712e-10
-7.362e-09
-7.85954e-10
-6.93515e-09
-7.81288e-10
-6.51183e-09
-7.74714e-10
-6.09307e-09
-7.6624e-10
-5.6799e-09
-7.55879e-10
-5.27333e-09
-7.43651e-10
-4.87434e-09
-7.29583e-10
-4.48393e-09
-7.13709e-10
-4.10304e-09
-6.96068e-10
-3.73261e-09
-6.76708e-10
-3.37353e-09
-6.5568e-10
-3.02668e-09
-6.33046e-10
-2.69288e-09
-6.08871e-10
-2.37294e-09
-5.8323e-10
-2.06759e-09
-5.56201e-10
-1.77754e-09
-5.27872e-10
-1.50344e-09
-4.98336e-10
-1.24589e-09
-4.67694e-10
-1.00541e-09
-4.36054e-10
-7.8248e-10
-4.03531e-10
-5.77506e-10
-3.7025e-10
-3.90817e-10
-3.36343e-10
-2.22665e-10
-3.01954e-10
-7.32174e-11
-2.67235e-10
5.74486e-11
-2.32354e-10
1.69355e-10
-1.9749e-10
2.62634e-10
-1.62841e-10
3.37532e-10
-1.28623e-10
3.9443e-10
-9.50779e-11
4.33853e-10
-6.24738e-11
4.5649e-10
-3.11138e-11
4.63213e-10
-1.34351e-12
4.55104e-10
2.64424e-11
4.33484e-10
5.17844e-11
3.99946e-10
7.41484e-11
3.56397e-10
9.29089e-11
3.05099e-10
1.07333e-10
2.4871e-10
1.16569e-10
1.9031e-10
1.19648e-10
1.33409e-10
1.15521e-10
8.18795e-11
1.03186e-10
3.98088e-11
8.19363e-11
1.12179e-11
5.19661e-11
1.62762e-11
1.32584e-11
-3.62923e-11
3.91059e-11
-7.92221e-11
6.82116e-11
-9.67242e-11
9.3478e-11
-9.3182e-11
1.09172e-10
-7.28394e-11
1.10716e-10
-3.95295e-11
9.4551e-11
3.48122e-12
5.79979e-11
5.35049e-11
-8.72857e-13
1.08375e-10
-8.33613e-11
1.66365e-10
-1.90252e-10
2.26109e-10
-3.21906e-10
2.86533e-10
-4.78343e-10
3.46794e-10
-6.59311e-10
4.06234e-10
-8.64338e-10
4.64344e-10
-1.09279e-09
5.20732e-10
-1.34388e-09
5.75104e-10
-1.61675e-09
6.27238e-10
-1.91045e-09
6.76979e-10
-2.22397e-09
7.24217e-10
-2.55629e-09
7.68885e-10
-2.90633e-09
8.10949e-10
-3.27304e-09
8.50398e-10
-3.65533e-09
8.87246e-10
-4.05215e-09
9.21519e-10
-4.46244e-09
9.53259e-10
-4.88517e-09
9.82516e-10
-5.31931e-09
1.00935e-09
-5.76389e-09
1.03382e-09
-6.21792e-09
1.05599e-09
-6.68047e-09
1.07593e-09
-7.15061e-09
1.09371e-09
-7.62746e-09
1.10939e-09
-8.11014e-09
1.12304e-09
-8.59782e-09
1.13472e-09
-9.08967e-09
1.14449e-09
-9.58491e-09
1.1524e-09
-1.00827e-08
1.15852e-09
-1.05824e-08
1.16288e-09
-1.10832e-08
1.16553e-09
-1.15844e-08
1.16651e-09
-1.20853e-08
1.16585e-09
-1.25851e-08
1.1636e-09
-1.30833e-08
1.15976e-09
-1.35791e-08
1.15438e-09
-1.40718e-08
1.14746e-09
-1.45609e-08
1.13902e-09
-1.50456e-08
1.12908e-09
-1.55254e-08
1.11764e-09
-1.59995e-08
1.10471e-09
-1.64673e-08
1.09031e-09
-1.69282e-08
1.07442e-09
-1.73815e-08
1.05705e-09
-1.78267e-08
1.0382e-09
-1.8263e-08
1.01787e-09
-1.86899e-08
9.96061e-10
-1.91066e-08
9.72767e-10
-1.95126e-08
9.47989e-10
-1.99073e-08
9.21727e-10
-2.02899e-08
8.93981e-10
-2.06598e-08
8.64753e-10
-2.10165e-08
8.34047e-10
-2.13593e-08
8.01869e-10
-2.16875e-08
7.68229e-10
-2.20006e-08
7.33138e-10
-2.22979e-08
6.96609e-10
-2.25789e-08
6.58663e-10
-2.28429e-08
6.1932e-10
-2.30894e-08
5.78606e-10
-2.33178e-08
5.36553e-10
-2.35276e-08
4.93194e-10
-2.37182e-08
4.48568e-10
-2.3889e-08
4.02721e-10
-2.40398e-08
3.55701e-10
-2.41698e-08
3.07563e-10
-2.42788e-08
2.58367e-10
-2.43662e-08
2.08177e-10
-2.44318e-08
1.57064e-10
-2.44751e-08
1.05104e-10
-2.44959e-08
5.23773e-11
-2.44939e-08
-1.02929e-12
-2.44687e-08
-5.50242e-11
-2.44203e-08
-1.09511e-10
-2.43485e-08
-1.64387e-10
-2.42531e-08
-2.19546e-10
-2.41342e-08
-2.74878e-10
-2.39916e-08
-3.30266e-10
-2.38254e-08
-3.8559e-10
-2.36358e-08
-4.40728e-10
-2.34228e-08
-4.95552e-10
-2.31867e-08
-5.49932e-10
-2.29276e-08
-6.03736e-10
-2.2646e-08
-6.56828e-10
-2.23422e-08
-7.0907e-10
-2.20166e-08
-7.60326e-10
-2.16696e-08
-8.10455e-10
-2.13019e-08
-8.59318e-10
-2.09141e-08
-9.06776e-10
-2.05067e-08
-9.52689e-10
-2.00806e-08
-9.96919e-10
-1.96365e-08
-1.03933e-09
-1.91752e-08
-1.07979e-09
-1.86976e-08
-1.11817e-09
-1.82046e-08
-1.15435e-09
-1.76973e-08
-1.18819e-09
-1.71766e-08
-1.21958e-09
-1.66437e-08
-1.24842e-09
-1.60997e-08
-1.27458e-09
-1.55457e-08
-1.29799e-09
-1.4983e-08
-1.31853e-09
-1.44128e-08
-1.33613e-09
-1.38364e-08
-1.35071e-09
-1.32551e-08
-1.36219e-09
-1.26702e-08
-1.37053e-09
-1.2083e-08
-1.37567e-09
-1.1495e-08
-1.37757e-09
-1.09075e-08
-1.3762e-09
-1.03219e-08
-1.37155e-09
-9.73964e-09
-1.36359e-09
-9.16202e-09
-1.35233e-09
-8.59046e-09
-1.3378e-09
-8.02635e-09
-1.32e-09
-7.47102e-09
-1.29897e-09
-6.92584e-09
-1.27477e-09
-6.3921e-09
-1.24745e-09
-5.87109e-09
-1.21707e-09
-5.36407e-09
-1.18373e-09
-4.87224e-09
-1.14751e-09
-4.39676e-09
-1.10852e-09
-3.93875e-09
-1.06688e-09
-3.49928e-09
-1.02271e-09
-3.07933e-09
-9.76143e-10
-2.67986e-09
-9.27344e-10
-2.30173e-09
-8.76471e-10
-1.94572e-09
-8.23701e-10
-1.61255e-09
-7.69221e-10
-1.30285e-09
-7.13235e-10
-1.01714e-09
-6.5596e-10
-7.55854e-10
-5.97628e-10
-5.19318e-10
-5.38489e-10
-3.07742e-10
-4.78812e-10
-1.2121e-10
-4.18886e-10
4.03271e-11
-3.59027e-10
1.77063e-10
-2.99576e-10
2.89351e-10
-2.40911e-10
3.77718e-10
-1.83445e-10
4.42885e-10
-1.2764e-10
4.85782e-10
-7.40108e-11
5.07577e-10
-2.31388e-11
5.09703e-10
2.43162e-11
4.93886e-10
6.7601e-11
4.62183e-10
1.05852e-10
4.17013e-10
1.38079e-10
3.61198e-10
1.63148e-10
2.97991e-10
1.79776e-10
2.31091e-10
1.86548e-10
1.64635e-10
1.81976e-10
1.03172e-10
1.64649e-10
5.15955e-11
1.33512e-10
1.51527e-11
8.84089e-11
3.14289e-11
1.21813e-11
-4.84737e-11
3.47265e-11
-1.01767e-10
5.76785e-11
-1.19676e-10
7.34356e-11
-1.08939e-10
7.59055e-11
-7.53094e-11
6.02124e-11
-2.38364e-11
2.25223e-11
4.11714e-11
-4.00991e-11
1.16126e-10
-1.29808e-10
1.98084e-10
-2.48097e-10
2.84653e-10
-3.95892e-10
3.73905e-10
-5.73651e-10
4.64292e-10
-7.81441e-10
5.54584e-10
-1.01901e-09
6.43805e-10
-1.28585e-09
7.31185e-10
-1.58125e-09
8.16126e-10
-1.90431e-09
8.98169e-10
-2.25404e-09
9.76965e-10
-2.62932e-09
1.05226e-09
-3.02897e-09
1.12387e-09
-3.45177e-09
1.19168e-09
-3.89644e-09
1.25562e-09
-4.3617e-09
1.31566e-09
-4.84627e-09
1.37181e-09
-5.34883e-09
1.42409e-09
-5.86812e-09
1.47255e-09
-6.40287e-09
1.51727e-09
-6.95183e-09
1.55831e-09
-7.51378e-09
1.59576e-09
-8.08752e-09
1.62973e-09
-8.67188e-09
1.66029e-09
-9.26572e-09
1.68755e-09
-9.86793e-09
1.7116e-09
-1.04774e-08
1.73253e-09
-1.10932e-08
1.75045e-09
-1.17141e-08
1.76542e-09
-1.23392e-08
1.77754e-09
-1.29676e-08
1.78688e-09
-1.35982e-08
1.79351e-09
-1.42302e-08
1.7975e-09
-1.48626e-08
1.79891e-09
-1.54945e-08
1.79778e-09
-1.61251e-08
1.79418e-09
-1.67535e-08
1.78813e-09
-1.73788e-08
1.77967e-09
-1.80001e-08
1.76883e-09
-1.86168e-08
1.75565e-09
-1.92278e-08
1.74013e-09
-1.98325e-08
1.72229e-09
-2.04299e-08
1.70214e-09
-2.10193e-08
1.6797e-09
-2.15998e-08
1.65497e-09
-2.21708e-08
1.62795e-09
-2.27312e-08
1.59864e-09
-2.32804e-08
1.56705e-09
-2.38175e-08
1.53317e-09
-2.43417e-08
1.497e-09
-2.48523e-08
1.45854e-09
-2.53483e-08
1.4178e-09
-2.58291e-08
1.37478e-09
-2.62939e-08
1.32948e-09
-2.67417e-08
1.28192e-09
-2.7172e-08
1.2321e-09
-2.75838e-08
1.18003e-09
-2.79764e-08
1.12575e-09
-2.8349e-08
1.06927e-09
-2.8701e-08
1.01062e-09
-2.90315e-08
9.4984e-10
-2.93399e-08
8.86973e-10
-2.96254e-08
8.22065e-10
-2.98874e-08
7.55171e-10
-3.01252e-08
6.86354e-10
-3.03381e-08
6.15682e-10
-3.05256e-08
5.43234e-10
-3.06872e-08
4.69093e-10
-3.08222e-08
3.93352e-10
-3.09301e-08
3.16113e-10
-3.10105e-08
2.37483e-10
-3.1063e-08
1.5758e-10
-3.10871e-08
7.65282e-11
-3.10826e-08
-5.5392e-12
-3.10492e-08
-8.84816e-11
-3.09865e-08
-1.72151e-10
-3.08945e-08
-2.5639e-10
-3.0773e-08
-3.41038e-10
-3.0622e-08
-4.25923e-10
-3.04414e-08
-5.1087e-10
-3.02313e-08
-5.95695e-10
-2.99918e-08
-6.80211e-10
-2.97231e-08
-7.64224e-10
-2.94255e-08
-8.47536e-10
-2.90993e-08
-9.29946e-10
-2.87449e-08
-1.01125e-09
-2.83627e-08
-1.09123e-09
-2.79534e-08
-1.16969e-09
-2.75174e-08
-1.24641e-09
-2.70556e-08
-1.32118e-09
-2.65685e-08
-1.39379e-09
-2.60572e-08
-1.46403e-09
-2.55224e-08
-1.53168e-09
-2.49652e-08
-1.59656e-09
-2.43866e-08
-1.65844e-09
-2.37876e-08
-1.71714e-09
-2.31695e-08
-1.77247e-09
-2.25334e-08
-1.82424e-09
-2.18807e-08
-1.87226e-09
-2.12128e-08
-1.91638e-09
-2.05309e-08
-1.95644e-09
-1.98366e-08
-1.99227e-09
-1.91314e-08
-2.02374e-09
-1.84168e-08
-2.05073e-09
-1.76944e-08
-2.07311e-09
-1.69658e-08
-2.09079e-09
-1.62327e-08
-2.10368e-09
-1.54967e-08
-2.11169e-09
-1.47595e-08
-2.11477e-09
-1.40228e-08
-2.11287e-09
-1.32884e-08
-2.10597e-09
-1.25579e-08
-2.09405e-09
-1.18331e-08
-2.07711e-09
-1.11158e-08
-2.05518e-09
-1.04075e-08
-2.02828e-09
-9.70996e-09
-1.99649e-09
-9.02488e-09
-1.95986e-09
-8.35384e-09
-1.91849e-09
-7.69843e-09
-1.87248e-09
-7.06021e-09
-1.82196e-09
-6.44066e-09
-1.76707e-09
-5.84121e-09
-1.70797e-09
-5.26325e-09
-1.64484e-09
-4.70809e-09
-1.57787e-09
-4.17695e-09
-1.50728e-09
-3.67098e-09
-1.43331e-09
-3.19126e-09
-1.35619e-09
-2.73876e-09
-1.27621e-09
-2.31434e-09
-1.19364e-09
-1.91876e-09
-1.10881e-09
-1.55267e-09
-1.02205e-09
-1.2166e-09
-9.33705e-10
-9.10916e-10
-8.44168e-10
-6.35878e-10
-7.53849e-10
-3.91573e-10
-6.63192e-10
-1.77923e-10
-5.72676e-10
5.32355e-12
-4.82823e-10
1.58617e-10
-3.94204e-10
2.82616e-10
-3.07444e-10
3.7821e-10
-2.23235e-10
4.46542e-10
-1.42343e-10
4.89029e-10
-6.56262e-11
5.07394e-10
5.95138e-12
5.03691e-10
7.13041e-11
4.80339e-10
1.29205e-10
4.40149e-10
1.78268e-10
3.8636e-10
2.16937e-10
3.22653e-10
2.43483e-10
2.53172e-10
2.5603e-10
1.82528e-10
2.5262e-10
1.15819e-10
2.31358e-10
5.86745e-11
1.90657e-10
1.74493e-11
1.29634e-10
4.88782e-11
9.76261e-12
-5.82363e-11
2.59367e-11
-1.17941e-10
3.86533e-11
-1.32393e-10
4.0216e-11
-1.10502e-10
2.44365e-11
-5.95299e-11
-1.36548e-11
1.42549e-11
-7.79929e-11
1.05509e-10
-1.71619e-10
2.09753e-10
-2.96798e-10
3.23263e-10
-4.55116e-10
4.42971e-10
-6.47579e-10
5.66368e-10
-8.74697e-10
6.91411e-10
-1.13656e-09
8.1645e-10
-1.43292e-09
9.4016e-10
-1.76322e-09
1.06148e-09
-2.12668e-09
1.17959e-09
-2.52233e-09
1.29382e-09
-2.94905e-09
1.40368e-09
-3.40559e-09
1.5088e-09
-3.89062e-09
1.60891e-09
-4.40275e-09
1.70381e-09
-4.94054e-09
1.79341e-09
-5.50251e-09
1.87763e-09
-6.08717e-09
1.95647e-09
-6.69303e-09
2.02995e-09
-7.31861e-09
2.09813e-09
-7.96243e-09
2.16109e-09
-8.62304e-09
2.21892e-09
-9.299e-09
2.27173e-09
-9.98891e-09
2.31964e-09
-1.06914e-08
2.36277e-09
-1.14051e-08
2.40125e-09
-1.21287e-08
2.43521e-09
-1.28609e-08
2.46477e-09
-1.36006e-08
2.49005e-09
-1.43463e-08
2.51117e-09
-1.5097e-08
2.52824e-09
-1.58515e-08
2.54136e-09
-1.66086e-08
2.55063e-09
-1.73672e-08
2.55613e-09
-1.81263e-08
2.55796e-09
-1.88847e-08
2.55618e-09
-1.96414e-08
2.55086e-09
-2.03953e-08
2.54205e-09
-2.11454e-08
2.5298e-09
-2.18907e-08
2.51415e-09
-2.26302e-08
2.49515e-09
-2.33629e-08
2.47282e-09
-2.40878e-08
2.44717e-09
-2.48039e-08
2.41824e-09
-2.55102e-08
2.38602e-09
-2.62058e-08
2.35054e-09
-2.68896e-08
2.3118e-09
-2.75608e-08
2.2698e-09
-2.82183e-08
2.22455e-09
-2.88612e-08
2.17604e-09
-2.94885e-08
2.12429e-09
-3.00992e-08
2.06929e-09
-3.06925e-08
2.01104e-09
-3.12672e-08
1.94956e-09
-3.18226e-08
1.88486e-09
-3.23576e-08
1.81694e-09
-3.28714e-08
1.74584e-09
-3.33629e-08
1.67157e-09
-3.38313e-08
1.59416e-09
-3.42757e-08
1.51366e-09
-3.46952e-08
1.43011e-09
-3.50889e-08
1.34355e-09
-3.5456e-08
1.25406e-09
-3.57956e-08
1.16171e-09
-3.6107e-08
1.06657e-09
-3.63894e-08
9.6873e-10
-3.6642e-08
8.68297e-10
-3.68642e-08
7.65378e-10
-3.70552e-08
6.60096e-10
-3.72144e-08
5.52584e-10
-3.73413e-08
4.42984e-10
-3.74353e-08
3.31452e-10
-3.74958e-08
2.18154e-10
-3.75226e-08
1.03267e-10
-3.75151e-08
-1.30201e-11
-3.74731e-08
-1.30509e-10
-3.73962e-08
-2.48989e-10
-3.72844e-08
-3.68241e-10
-3.71374e-08
-4.88035e-10
-3.69552e-08
-6.08131e-10
-3.67378e-08
-7.2828e-10
-3.64852e-08
-8.48227e-10
-3.61977e-08
-9.67705e-10
-3.58755e-08
-1.08644e-09
-3.55189e-08
-1.20417e-09
-3.51282e-08
-1.32059e-09
-3.47041e-08
-1.43542e-09
-3.42469e-08
-1.54837e-09
-3.37575e-08
-1.65915e-09
-3.32364e-08
-1.76746e-09
-3.26846e-08
-1.873e-09
-3.21029e-08
-1.97547e-09
-3.14923e-08
-2.0746e-09
-3.0854e-08
-2.17007e-09
-3.01889e-08
-2.26161e-09
-2.94984e-08
-2.34893e-09
-2.87838e-08
-2.43176e-09
-2.80464e-08
-2.50984e-09
-2.72878e-08
-2.5829e-09
-2.65094e-08
-2.65069e-09
-2.57128e-08
-2.71298e-09
-2.48996e-08
-2.76955e-09
-2.40717e-08
-2.82018e-09
-2.32308e-08
-2.86469e-09
-2.23786e-08
-2.90289e-09
-2.15171e-08
-2.93462e-09
-2.06482e-08
-2.95974e-09
-1.97737e-08
-2.97812e-09
-1.88957e-08
-2.98966e-09
-1.80162e-08
-2.99428e-09
-1.71372e-08
-2.99191e-09
-1.62607e-08
-2.98251e-09
-1.53886e-08
-2.96607e-09
-1.45232e-08
-2.94258e-09
-1.36663e-08
-2.91209e-09
-1.28199e-08
-2.87464e-09
-1.19861e-08
-2.83031e-09
-1.11667e-08
-2.7792e-09
-1.03638e-08
-2.72144e-09
-9.5791e-09
-2.65717e-09
-8.81447e-09
-2.58658e-09
-8.07167e-09
-2.50987e-09
-7.35238e-09
-2.42726e-09
-6.65822e-09
-2.339e-09
-5.99072e-09
-2.24537e-09
-5.35133e-09
-2.14667e-09
-4.7414e-09
-2.04323e-09
-4.16218e-09
-1.93541e-09
-3.61481e-09
-1.82358e-09
-3.10029e-09
-1.70816e-09
-2.61952e-09
-1.58958e-09
-2.17324e-09
-1.46832e-09
-1.76206e-09
-1.34488e-09
-1.38643e-09
-1.21981e-09
-1.04661e-09
-1.09367e-09
-7.42701e-10
-9.67098e-10
-4.7461e-10
-8.40767e-10
-2.42029e-10
-7.15405e-10
-4.44266e-11
-5.91806e-10
1.18968e-10
-4.70839e-10
2.49188e-10
-3.53455e-10
3.47549e-10
-2.40704e-10
4.15675e-10
-1.33752e-10
4.55518e-10
-3.38921e-11
4.69392e-10
5.74306e-11
4.59992e-10
1.38604e-10
4.30427e-10
2.07833e-10
3.84241e-10
2.63123e-10
3.25433e-10
3.02291e-10
2.58484e-10
3.22979e-10
1.88379e-10
3.22724e-10
1.20674e-10
2.99064e-10
6.16136e-11
2.49718e-10
1.84109e-11
1.72837e-10
6.72891e-11
6.43701e-12
-6.46733e-11
1.39593e-11
-1.25464e-10
1.32535e-11
-1.31687e-10
-3.13358e-12
-9.41147e-11
-4.12547e-11
-2.14088e-11
-1.05999e-10
7.89997e-11
-2.01262e-10
2.00772e-10
-3.30069e-10
3.3856e-10
-4.9469e-10
4.87884e-10
-6.96727e-10
6.45008e-10
-9.37199e-10
8.0684e-10
-1.21662e-09
9.70835e-10
-1.53508e-09
1.13491e-09
-1.8923e-09
1.29738e-09
-2.28768e-09
1.45686e-09
-2.72038e-09
1.61229e-09
-3.18935e-09
1.76279e-09
-3.69337e-09
1.9077e-09
-4.23107e-09
2.0465e-09
-4.801e-09
2.17884e-09
-5.40162e-09
2.30443e-09
-6.03132e-09
2.42311e-09
-6.68848e-09
2.53478e-09
-7.37142e-09
2.63941e-09
-8.07849e-09
2.73702e-09
-8.80801e-09
2.82765e-09
-9.55833e-09
2.9114e-09
-1.03278e-08
2.98838e-09
-1.11148e-08
3.05872e-09
-1.19177e-08
3.12256e-09
-1.2735e-08
3.18005e-09
-1.35651e-08
3.23136e-09
-1.44065e-08
3.27663e-09
-1.52578e-08
3.31604e-09
-1.61174e-08
3.34972e-09
-1.69841e-08
3.37783e-09
-1.78564e-08
3.40051e-09
-1.87329e-08
3.41789e-09
-1.96124e-08
3.4301e-09
-2.04935e-08
3.43725e-09
-2.1375e-08
3.43944e-09
-2.22556e-08
3.43678e-09
-2.3134e-08
3.42933e-09
-2.40092e-08
3.41719e-09
-2.48798e-08
3.40042e-09
-2.57447e-08
3.37906e-09
-2.66027e-08
3.35317e-09
-2.74527e-08
3.32278e-09
-2.82934e-08
3.28793e-09
-2.91238e-08
3.24864e-09
-2.99428e-08
3.20494e-09
-3.0749e-08
3.15683e-09
-3.15416e-08
3.10432e-09
-3.23192e-08
3.04744e-09
-3.30808e-08
2.98617e-09
-3.38253e-08
2.92054e-09
-3.45516e-08
2.85053e-09
-3.52584e-08
2.77617e-09
-3.59449e-08
2.69746e-09
-3.66097e-08
2.61441e-09
-3.72519e-08
2.52705e-09
-3.78704e-08
2.43539e-09
-3.8464e-08
2.33947e-09
-3.90317e-08
2.23932e-09
-3.95726e-08
2.13498e-09
-4.00854e-08
2.02652e-09
-4.05693e-08
1.91398e-09
-4.10232e-08
1.79746e-09
-4.14462e-08
1.67703e-09
-4.18373e-08
1.5528e-09
-4.21956e-08
1.42486e-09
-4.25202e-08
1.29336e-09
-4.28103e-08
1.15841e-09
-4.30651e-08
1.02018e-09
-4.32838e-08
8.78819e-10
-4.34658e-08
7.34519e-10
-4.36102e-08
5.87469e-10
-4.37167e-08
4.37878e-10
-4.37845e-08
2.8597e-10
-4.38132e-08
1.31981e-10
-4.38024e-08
-2.38362e-11
-4.37517e-08
-1.81215e-10
-4.36608e-08
-3.39874e-10
-4.35295e-08
-4.99521e-10
-4.33577e-08
-6.59848e-10
-4.31453e-08
-8.20537e-10
-4.28923e-08
-9.81257e-10
-4.25989e-08
-1.14167e-09
-4.22652e-08
-1.30141e-09
-4.18915e-08
-1.46013e-09
-4.14782e-08
-1.61746e-09
-4.10257e-08
-1.77302e-09
-4.05347e-08
-1.92643e-09
-4.00058e-08
-2.07731e-09
-3.94397e-08
-2.22525e-09
-3.88373e-08
-2.36988e-09
-3.81995e-08
-2.5108e-09
-3.75273e-08
-2.64762e-09
-3.6822e-08
-2.77994e-09
-3.60846e-08
-2.90739e-09
-3.53167e-08
-3.02959e-09
-3.45194e-08
-3.14616e-09
-3.36945e-08
-3.25674e-09
-3.28433e-08
-3.36098e-09
-3.19677e-08
-3.45853e-09
-3.10693e-08
-3.54907e-09
-3.015e-08
-3.63229e-09
-2.92116e-08
-3.7079e-09
-2.82562e-08
-3.77561e-09
-2.72857e-08
-3.83517e-09
-2.63023e-08
-3.88635e-09
-2.5308e-08
-3.92893e-09
-2.4305e-08
-3.96272e-09
-2.32955e-08
-3.98756e-09
-2.22819e-08
-4.00331e-09
-2.12663e-08
-4.00987e-09
-2.02511e-08
-4.00715e-09
-1.92385e-08
-3.9951e-09
-1.82308e-08
-3.97369e-09
-1.72305e-08
-3.94294e-09
-1.62397e-08
-3.90288e-09
-1.52607e-08
-3.85359e-09
-1.42959e-08
-3.79516e-09
-1.33473e-08
-3.72774e-09
-1.24173e-08
-3.6515e-09
-1.15078e-08
-3.56663e-09
-1.0621e-08
-3.47337e-09
-9.75893e-09
-3.37198e-09
-8.92341e-09
-3.26278e-09
-8.11632e-09
-3.14609e-09
-7.3394e-09
-3.02229e-09
-6.59431e-09
-2.89177e-09
-5.88257e-09
-2.75497e-09
-5.2056e-09
-2.61238e-09
-4.56469e-09
-2.46449e-09
-3.96099e-09
-2.31186e-09
-3.39551e-09
-2.15507e-09
-2.86908e-09
-1.99475e-09
-2.38239e-09
-1.83157e-09
-1.93595e-09
-1.66625e-09
-1.53004e-09
-1.49957e-09
-1.16479e-09
-1.33235e-09
-8.40084e-10
-1.16548e-09
-5.55564e-10
-9.99924e-10
-3.10642e-10
-8.36729e-10
-1.04454e-10
-6.77027e-10
6.41472e-11
-5.22056e-10
1.96617e-10
-3.73174e-10
2.94738e-10
-2.31873e-10
3.60644e-10
-9.97986e-11
3.96845e-10
2.12302e-11
4.06245e-10
1.29204e-10
3.92174e-10
2.21904e-10
3.58401e-10
2.96897e-10
3.09165e-10
3.51527e-10
2.49202e-10
3.82942e-10
1.83796e-10
3.8813e-10
1.18863e-10
3.63997e-10
6.11105e-11
3.0747e-10
1.83252e-11
2.15622e-10
8.56143e-11
2.50615e-12
-6.71794e-11
-2.84144e-13
-1.22673e-10
-1.68481e-11
-1.15123e-10
-5.41485e-11
-5.68144e-11
-1.17911e-10
4.23532e-11
-2.12795e-10
1.73884e-10
-3.42532e-10
3.30509e-10
-5.10034e-10
5.06062e-10
-7.17487e-10
6.95337e-10
-9.66434e-10
8.93954e-10
-1.25785e-09
1.09825e-09
-1.59221e-09
1.30519e-09
-1.96955e-09
1.51226e-09
-2.38955e-09
1.71738e-09
-2.85157e-09
1.91888e-09
-3.35469e-09
2.11541e-09
-3.89777e-09
2.30587e-09
-4.47951e-09
2.48943e-09
-5.09843e-09
2.66543e-09
-5.75297e-09
2.83337e-09
-6.44144e-09
2.9929e-09
-7.16212e-09
3.14379e-09
-7.91322e-09
3.28588e-09
-8.69293e-09
3.41912e-09
-9.49942e-09
3.54351e-09
-1.03309e-08
3.65909e-09
-1.11854e-08
3.76596e-09
-1.20613e-08
3.86424e-09
-1.29566e-08
3.95409e-09
-1.38698e-08
4.03566e-09
-1.47988e-08
4.10915e-09
-1.57422e-08
4.17473e-09
-1.66982e-08
4.2326e-09
-1.76651e-08
4.28295e-09
-1.86413e-08
4.32596e-09
-1.96253e-08
4.36181e-09
-2.06155e-08