/*--------------------------------*- C++ -*----------------------------------*\
| =========                 |                                                 |
| \\      /  F ield         | OpenFOAM: The Open Source CFD Toolbox           |
|  \\    /   O peration     | Version:  2.1.1                                 |
|   \\  /    A nd           | Web:      www.OpenFOAM.org                      |
|    \\/     M anipulation  |                                                 |
\*---------------------------------------------------------------------------*/
FoamFile
{
    version     2.0;
    format      ascii;
    class       volVectorField;
    location    "1.2";
    object      U;
}
// * * * * * * * * * * * * * * * * * * * * * * * * * * * * * * * * * * * * * //

dimensions      [0 1 -1 0 0 0 0];

internalField   nonuniform List<vector> 
25921
(
(3.1927e-07 -3.20238e-07 0)
(3.51366e-06 -2.10254e-06 0)
(1.05534e-05 -3.18119e-06 0)
(1.90991e-05 -3.48767e-06 0)
(2.74501e-05 -3.28415e-06 0)
(3.45646e-05 -2.76499e-06 0)
(3.97505e-05 -2.05481e-06 0)
(4.25535e-05 -1.23445e-06 0)
(4.26919e-05 -3.55729e-07 0)
(4.00041e-05 5.48027e-07 0)
(3.44129e-05 1.45479e-06 0)
(2.59011e-05 2.34973e-06 0)
(1.44953e-05 3.22273e-06 0)
(2.5382e-07 4.06679e-06 0)
(-1.67419e-05 4.87721e-06 0)
(-3.63935e-05 5.65087e-06 0)
(-5.85912e-05 6.38578e-06 0)
(-8.32169e-05 7.08088e-06 0)
(-0.000110147 7.73571e-06 0)
(-0.000139256 8.35036e-06 0)
(-0.000170416 8.92527e-06 0)
(-0.0002035 9.46116e-06 0)
(-0.000238381 9.95898e-06 0)
(-0.000274937 1.04198e-05 0)
(-0.000313045 1.08449e-05 0)
(-0.000352587 1.12355e-05 0)
(-0.00039345 1.15929e-05 0)
(-0.000435521 1.19184e-05 0)
(-0.000478693 1.22134e-05 0)
(-0.000522863 1.24792e-05 0)
(-0.000567931 1.2717e-05 0)
(-0.000613802 1.2928e-05 0)
(-0.000660383 1.31134e-05 0)
(-0.000707586 1.32744e-05 0)
(-0.000755324 1.34118e-05 0)
(-0.000803516 1.35267e-05 0)
(-0.000852082 1.362e-05 0)
(-0.000900946 1.36923e-05 0)
(-0.000950033 1.37446e-05 0)
(-0.000999272 1.37774e-05 0)
(-0.00104859 1.37912e-05 0)
(-0.00109792 1.37866e-05 0)
(-0.0011472 1.37639e-05 0)
(-0.00119636 1.37236e-05 0)
(-0.00124534 1.36659e-05 0)
(-0.00129407 1.3591e-05 0)
(-0.00134249 1.34991e-05 0)
(-0.00139054 1.33904e-05 0)
(-0.00143816 1.32648e-05 0)
(-0.00148528 1.31224e-05 0)
(-0.00153184 1.29632e-05 0)
(-0.00157779 1.27871e-05 0)
(-0.00162306 1.25941e-05 0)
(-0.00166759 1.2384e-05 0)
(-0.00171132 1.21567e-05 0)
(-0.00175418 1.19122e-05 0)
(-0.00179612 1.16503e-05 0)
(-0.00183706 1.13708e-05 0)
(-0.00187696 1.10736e-05 0)
(-0.00191573 1.07587e-05 0)
(-0.00195333 1.04259e-05 0)
(-0.00198969 1.00751e-05 0)
(-0.00202474 9.70634e-06 0)
(-0.00205843 9.31958e-06 0)
(-0.00209068 8.91483e-06 0)
(-0.00212143 8.49215e-06 0)
(-0.00215063 8.05166e-06 0)
(-0.0021782 7.59351e-06 0)
(-0.0022041 7.1179e-06 0)
(-0.00222826 6.62511e-06 0)
(-0.00225061 6.11546e-06 0)
(-0.00227111 5.58934e-06 0)
(-0.0022897 5.04721e-06 0)
(-0.00230632 4.48958e-06 0)
(-0.00232092 3.91704e-06 0)
(-0.00233346 3.33027e-06 0)
(-0.00234388 2.72999e-06 0)
(-0.00235214 2.11702e-06 0)
(-0.0023582 1.49224e-06 0)
(-0.00236203 8.56608e-07 0)
(-0.00236358 2.11161e-07 0)
(-0.00236283 -4.42994e-07 0)
(-0.00235975 -1.10468e-06 0)
(-0.00235432 -1.77264e-06 0)
(-0.00234652 -2.44555e-06 0)
(-0.00233634 -3.12203e-06 0)
(-0.00232377 -3.80063e-06 0)
(-0.00230881 -4.47983e-06 0)
(-0.00229146 -5.15807e-06 0)
(-0.00227173 -5.83372e-06 0)
(-0.00224963 -6.50511e-06 0)
(-0.00222519 -7.17054e-06 0)
(-0.00219842 -7.82825e-06 0)
(-0.00216937 -8.47646e-06 0)
(-0.00213806 -9.11336e-06 0)
(-0.00210454 -9.73714e-06 0)
(-0.00206887 -1.0346e-05 0)
(-0.00203109 -1.0938e-05 0)
(-0.00199128 -1.15113e-05 0)
(-0.0019495 -1.20642e-05 0)
(-0.00190583 -1.25949e-05 0)
(-0.00186035 -1.31015e-05 0)
(-0.00181314 -1.35823e-05 0)
(-0.0017643 -1.40356e-05 0)
(-0.00171394 -1.44598e-05 0)
(-0.00166214 -1.48533e-05 0)
(-0.00160903 -1.52146e-05 0)
(-0.00155471 -1.55421e-05 0)
(-0.00149931 -1.58347e-05 0)
(-0.00144296 -1.6091e-05 0)
(-0.00138577 -1.63098e-05 0)
(-0.00132789 -1.64901e-05 0)
(-0.00126944 -1.6631e-05 0)
(-0.00121056 -1.67315e-05 0)
(-0.0011514 -1.67911e-05 0)
(-0.0010921 -1.68092e-05 0)
(-0.0010328 -1.67852e-05 0)
(-0.000973642 -1.67189e-05 0)
(-0.000914783 -1.66102e-05 0)
(-0.000856365 -1.64589e-05 0)
(-0.000798534 -1.62653e-05 0)
(-0.000741436 -1.60295e-05 0)
(-0.000685215 -1.57521e-05 0)
(-0.000630015 -1.54335e-05 0)
(-0.000575975 -1.50744e-05 0)
(-0.000523234 -1.46758e-05 0)
(-0.000471926 -1.42385e-05 0)
(-0.000422181 -1.37638e-05 0)
(-0.000374127 -1.32528e-05 0)
(-0.000327885 -1.2707e-05 0)
(-0.000283572 -1.2128e-05 0)
(-0.000241298 -1.15174e-05 0)
(-0.000201169 -1.08769e-05 0)
(-0.000163281 -1.02087e-05 0)
(-0.000127727 -9.51472e-06 0)
(-9.45876e-05 -8.79721e-06 0)
(-6.39392e-05 -8.05855e-06 0)
(-3.58471e-05 -7.30125e-06 0)
(-1.03678e-05 -6.52802e-06 0)
(1.24523e-05 -5.74178e-06 0)
(3.25777e-05 -4.94555e-06 0)
(4.99847e-05 -4.1427e-06 0)
(6.46623e-05 -3.33689e-06 0)
(7.66131e-05 -2.5321e-06 0)
(8.58552e-05 -1.73279e-06 0)
(9.24236e-05 -9.43929e-07 0)
(9.63723e-05 -1.71234e-07 0)
(9.7777e-05 5.78682e-07 0)
(9.67382e-05 1.29795e-06 0)
(9.33858e-05 1.9772e-06 0)
(8.78841e-05 2.60476e-06 0)
(8.04392e-05 3.16591e-06 0)
(7.13086e-05 3.64159e-06 0)
(6.08135e-05 4.00637e-06 0)
(4.93566e-05 4.22547e-06 0)
(3.74457e-05 4.25042e-06 0)
(2.57242e-05 4.01482e-06 0)
(1.49991e-05 3.43348e-06 0)
(6.26059e-06 2.40706e-06 0)
(7.07476e-07 8.95506e-07 0)
(-5.54397e-07 -5.53661e-07 0)
(2.10307e-06 -3.51473e-06 0)
(1.07096e-05 -1.07054e-05 0)
(2.57471e-05 -1.47325e-05 0)
(4.28811e-05 -1.56304e-05 0)
(5.88948e-05 -1.4202e-05 0)
(7.15921e-05 -1.11439e-05 0)
(7.93295e-05 -6.97909e-06 0)
(8.09208e-05 -2.09052e-06 0)
(7.55609e-05 3.24661e-06 0)
(6.27369e-05 8.83489e-06 0)
(4.21567e-05 1.45315e-05 0)
(1.3696e-05 2.02323e-05 0)
(-2.26423e-05 2.58611e-05 0)
(-6.67589e-05 3.13618e-05 0)
(-0.000118481 3.66933e-05 0)
(-0.000177582 4.18263e-05 0)
(-0.000243794 4.67396e-05 0)
(-0.000316821 5.14192e-05 0)
(-0.000396344 5.58561e-05 0)
(-0.000482034 6.00454e-05 0)
(-0.000573551 6.39854e-05 0)
(-0.000670552 6.76769e-05 0)
(-0.000772696 7.11227e-05 0)
(-0.000879641 7.4327e-05 0)
(-0.000991053 7.72951e-05 0)
(-0.0011066 8.00332e-05 0)
(-0.00122597 8.25482e-05 0)
(-0.00134883 8.48469e-05 0)
(-0.0014749 8.69369e-05 0)
(-0.00160387 8.88255e-05 0)
(-0.00173546 9.052e-05 0)
(-0.00186939 9.20275e-05 0)
(-0.0020054 9.3355e-05 0)
(-0.00214323 9.45092e-05 0)
(-0.00228262 9.54964e-05 0)
(-0.00242335 9.63224e-05 0)
(-0.00256518 9.69927e-05 0)
(-0.00270787 9.75125e-05 0)
(-0.00285123 9.78863e-05 0)
(-0.00299502 9.81183e-05 0)
(-0.00313904 9.82122e-05 0)
(-0.0032831 9.81713e-05 0)
(-0.00342698 9.79985e-05 0)
(-0.00357051 9.7696e-05 0)
(-0.00371349 9.72659e-05 0)
(-0.00385572 9.671e-05 0)
(-0.00399703 9.60293e-05 0)
(-0.00413723 9.5225e-05 0)
(-0.00427613 9.42975e-05 0)
(-0.00441355 9.32474e-05 0)
(-0.00454932 9.20748e-05 0)
(-0.00468325 9.07796e-05 0)
(-0.00481515 8.93616e-05 0)
(-0.00494486 8.78205e-05 0)
(-0.00507218 8.61558e-05 0)
(-0.00519693 8.43671e-05 0)
(-0.00531893 8.24538e-05 0)
(-0.00543799 8.04154e-05 0)
(-0.00555394 7.82515e-05 0)
(-0.00566659 7.59617e-05 0)
(-0.00577575 7.35458e-05 0)
(-0.00588125 7.10037e-05 0)
(-0.00598289 6.83354e-05 0)
(-0.00608049 6.55414e-05 0)
(-0.00617388 6.26222e-05 0)
(-0.00626287 5.95785e-05 0)
(-0.00634728 5.64116e-05 0)
(-0.00642694 5.3123e-05 0)
(-0.00650166 4.97145e-05 0)
(-0.00657129 4.61882e-05 0)
(-0.00663565 4.2547e-05 0)
(-0.00669458 3.87937e-05 0)
(-0.00674792 3.49319e-05 0)
(-0.00679553 3.09655e-05 0)
(-0.00683724 2.68989e-05 0)
(-0.00687293 2.2737e-05 0)
(-0.00690247 1.84852e-05 0)
(-0.00692572 1.41492e-05 0)
(-0.00694259 9.73557e-06 0)
(-0.00695295 5.25098e-06 0)
(-0.00695672 7.02809e-07 0)
(-0.00695382 -3.90114e-06 0)
(-0.00694417 -8.55258e-06 0)
(-0.00692772 -1.32428e-05 0)
(-0.00690441 -1.79625e-05 0)
(-0.00687423 -2.27021e-05 0)
(-0.00683714 -2.74516e-05 0)
(-0.00679314 -3.22006e-05 0)
(-0.00674226 -3.69381e-05 0)
(-0.00668451 -4.16532e-05 0)
(-0.00661993 -4.63343e-05 0)
(-0.0065486 -5.09699e-05 0)
(-0.00647059 -5.55478e-05 0)
(-0.00638599 -6.00561e-05 0)
(-0.00629491 -6.44825e-05 0)
(-0.00619749 -6.88145e-05 0)
(-0.00609387 -7.30399e-05 0)
(-0.00598422 -7.7146e-05 0)
(-0.00586873 -8.11206e-05 0)
(-0.00574758 -8.49514e-05 0)
(-0.00562101 -8.86261e-05 0)
(-0.00548924 -9.21329e-05 0)
(-0.00535252 -9.54601e-05 0)
(-0.00521114 -9.85962e-05 0)
(-0.00506536 -0.00010153 0)
(-0.0049155 -0.000104252 0)
(-0.00476186 -0.000106751 0)
(-0.00460478 -0.000109017 0)
(-0.00444459 -0.000111042 0)
(-0.00428165 -0.000112817 0)
(-0.00411632 -0.000114335 0)
(-0.00394899 -0.000115588 0)
(-0.00378003 -0.00011657 0)
(-0.00360985 -0.000117277 0)
(-0.00343883 -0.000117702 0)
(-0.00326739 -0.000117843 0)
(-0.00309594 -0.000117696 0)
(-0.00292489 -0.00011726 0)
(-0.00275465 -0.000116534 0)
(-0.00258566 -0.000115517 0)
(-0.00241831 -0.000114211 0)
(-0.00225303 -0.000112618 0)
(-0.00209023 -0.00011074 0)
(-0.0019303 -0.000108582 0)
(-0.00177366 -0.000106148 0)
(-0.00162069 -0.000103445 0)
(-0.00147176 -0.000100479 0)
(-0.00132726 -9.72579e-05 0)
(-0.00118754 -9.37915e-05 0)
(-0.00105294 -9.00892e-05 0)
(-0.000923802 -8.6162e-05 0)
(-0.000800425 -8.20217e-05 0)
(-0.000683109 -7.76813e-05 0)
(-0.000572129 -7.31545e-05 0)
(-0.000467738 -6.84563e-05 0)
(-0.000370169 -6.36026e-05 0)
(-0.000279628 -5.86104e-05 0)
(-0.000196296 -5.34981e-05 0)
(-0.000120327 -4.8285e-05 0)
(-5.18444e-05 -4.29923e-05 0)
(9.06042e-06 -3.76423e-05 0)
(6.23306e-05 -3.22596e-05 0)
(0.000107947 -2.68707e-05 0)
(0.00014593 -2.15048e-05 0)
(0.000176348 -1.6194e-05 0)
(0.000199315 -1.09743e-05 0)
(0.000215004 -5.8865e-06 0)
(0.00022365 -9.76958e-07 0)
(0.000225557 3.7004e-06 0)
(0.000221113 8.08243e-06 0)
(0.000210801 1.20937e-05 0)
(0.000195215 1.5643e-05 0)
(0.000175082 1.86188e-05 0)
(0.000151285 2.08823e-05 0)
(0.000124894 2.22601e-05 0)
(9.71976e-05 2.25353e-05 0)
(6.97348e-05 2.14466e-05 0)
(4.42822e-05 1.87077e-05 0)
(2.27945e-05 1.40654e-05 0)
(7.53824e-06 7.54811e-06 0)
(8.90713e-07 7.05889e-07 0)
(3.18928e-06 -1.05613e-05 0)
(1.47678e-05 -2.57516e-05 0)
(3.34739e-05 -3.34159e-05 0)
(5.3556e-05 -3.43125e-05 0)
(7.09638e-05 -2.98869e-05 0)
(8.28791e-05 -2.14933e-05 0)
(8.70788e-05 -1.02483e-05 0)
(8.18779e-05 2.9697e-06 0)
(6.60752e-05 1.7487e-05 0)
(3.88626e-05 3.27927e-05 0)
(-2.55026e-07 4.84992e-05 0)
(-5.15251e-05 6.4314e-05 0)
(-0.000115 8.00148e-05 0)
(-0.00019058 9.54342e-05 0)
(-0.000278046 0.000110446 0)
(-0.000377088 0.000124956 0)
(-0.000487327 0.000138896 0)
(-0.000608331 0.000152217 0)
(-0.000739631 0.000164885 0)
(-0.00088073 0.00017688 0)
(-0.00103111 0.000188191 0)
(-0.00119026 0.000198815 0)
(-0.00135764 0.000208753 0)
(-0.00153272 0.000218015 0)
(-0.00171499 0.000226611 0)
(-0.00190391 0.000234556 0)
(-0.002099 0.000241865 0)
(-0.00229975 0.000248558 0)
(-0.00250568 0.000254651 0)
(-0.00271631 0.000260165 0)
(-0.00293119 0.000265118 0)
(-0.00314988 0.000269529 0)
(-0.00337195 0.000273417 0)
(-0.00359698 0.0002768 0)
(-0.00382456 0.000279694 0)
(-0.0040543 0.000282117 0)
(-0.00428584 0.000284082 0)
(-0.00451878 0.000285604 0)
(-0.00475279 0.000286696 0)
(-0.0049875 0.000287368 0)
(-0.00522259 0.000287633 0)
(-0.0054577 0.000287498 0)
(-0.00569253 0.000286972 0)
(-0.00592675 0.000286062 0)
(-0.00616004 0.000284774 0)
(-0.00639209 0.000283112 0)
(-0.00662259 0.00028108 0)
(-0.00685125 0.000278682 0)
(-0.00707775 0.000275919 0)
(-0.00730181 0.000272793 0)
(-0.00752311 0.000269304 0)
(-0.00774136 0.000265454 0)
(-0.00795626 0.000261241 0)
(-0.00816751 0.000256666 0)
(-0.00837482 0.000251726 0)
(-0.00857789 0.000246423 0)
(-0.00877641 0.000240754 0)
(-0.00897009 0.000234719 0)
(-0.00915863 0.000228316 0)
(-0.00934173 0.000221546 0)
(-0.00951909 0.000214409 0)
(-0.00969041 0.000206904 0)
(-0.00985539 0.000199033 0)
(-0.0100137 0.000190796 0)
(-0.0101652 0.000182197 0)
(-0.0103094 0.000173238 0)
(-0.0104461 0.000163924 0)
(-0.010575 0.000154258 0)
(-0.0106958 0.000144248 0)
(-0.0108084 0.000133899 0)
(-0.0109122 0.00012322 0)
(-0.0110073 0.000112221 0)
(-0.0110932 0.000100911 0)
(-0.0111697 8.9303e-05 0)
(-0.0112367 7.74098e-05 0)
(-0.0112938 6.52458e-05 0)
(-0.0113409 5.2827e-05 0)
(-0.0113778 4.01705e-05 0)
(-0.0114043 2.72951e-05 0)
(-0.0114202 1.42207e-05 0)
(-0.0114255 9.68758e-07 0)
(-0.0114199 -1.2438e-05 0)
(-0.0114034 -2.59755e-05 0)
(-0.0113758 -3.96183e-05 0)
(-0.0113371 -5.33397e-05 0)
(-0.0112873 -6.7112e-05 0)
(-0.0112263 -8.09062e-05 0)
(-0.0111542 -9.4692e-05 0)
(-0.0110709 -0.000108439 0)
(-0.0109765 -0.000122114 0)
(-0.0108711 -0.000135685 0)
(-0.0107548 -0.000149118 0)
(-0.0106277 -0.000162379 0)
(-0.01049 -0.000175434 0)
(-0.0103418 -0.000188246 0)
(-0.0101834 -0.000200782 0)
(-0.010015 -0.000213005 0)
(-0.00983688 -0.00022488 0)
(-0.00964934 -0.000236371 0)
(-0.00945271 -0.000247444 0)
(-0.00924734 -0.000258064 0)
(-0.00903361 -0.000268197 0)
(-0.00881192 -0.000277809 0)
(-0.0085827 -0.000286869 0)
(-0.00834642 -0.000295344 0)
(-0.00810356 -0.000303206 0)
(-0.00785462 -0.000310424 0)
(-0.00760014 -0.000316973 0)
(-0.00734065 -0.000322826 0)
(-0.00707673 -0.000327959 0)
(-0.00680896 -0.000332351 0)
(-0.00653794 -0.000335982 0)
(-0.0062643 -0.000338835 0)
(-0.00598866 -0.000340893 0)
(-0.00571166 -0.000342144 0)
(-0.00543396 -0.000342578 0)
(-0.00515621 -0.000342186 0)
(-0.00487906 -0.000340964 0)
(-0.0046032 -0.000338908 0)
(-0.00432928 -0.000336019 0)
(-0.00405797 -0.000332299 0)
(-0.00378992 -0.000327756 0)
(-0.00352581 -0.000322397 0)
(-0.00326626 -0.000316234 0)
(-0.00301192 -0.000309281 0)
(-0.00276341 -0.000301556 0)
(-0.00252134 -0.000293079 0)
(-0.00228629 -0.000283873 0)
(-0.00205885 -0.000273964 0)
(-0.00183955 -0.000263381 0)
(-0.00162892 -0.000252156 0)
(-0.00142746 -0.000240323 0)
(-0.00123564 -0.00022792 0)
(-0.00105388 -0.000214988 0)
(-0.0008826 -0.000201569 0)
(-0.000722153 -0.000187712 0)
(-0.000572866 -0.000173465 0)
(-0.000435023 -0.000158883 0)
(-0.000308861 -0.000144023 0)
(-0.000194569 -0.000128946 0)
(-9.22825e-05 -0.00011372 0)
(-2.08188e-06 -9.84156e-05 0)
(7.60141e-05 -8.31116e-05 0)
(0.000142053 -6.78934e-05 0)
(0.000196156 -5.28555e-05 0)
(0.000238522 -3.81027e-05 0)
(0.00026944 -2.37528e-05 0)
(0.000289299 -9.93921e-06 0)
(0.000298597 3.18512e-06 0)
(0.00029796 1.54432e-05 0)
(0.000288157 2.66284e-05 0)
(0.000270119 3.64966e-05 0)
(0.000244968 4.47581e-05 0)
(0.00021404 5.10674e-05 0)
(0.000178912 5.50144e-05 0)
(0.000141432 5.61209e-05 0)
(0.000103732 5.38566e-05 0)
(6.81744e-05 4.77025e-05 0)
(3.72567e-05 3.72922e-05 0)
(1.40316e-05 2.27945e-05 0)
(2.39368e-06 6.24412e-06 0)
(3.51013e-06 -1.91392e-05 0)
(1.57226e-05 -4.2939e-05 0)
(3.44849e-05 -5.35231e-05 0)
(5.316e-05 -5.29566e-05 0)
(6.71831e-05 -4.35029e-05 0)
(7.3368e-05 -2.72433e-05 0)
(6.91525e-05 -5.94572e-06 0)
(5.25423e-05 1.89497e-05 0)
(2.20716e-05 4.62969e-05 0)
(-2.32814e-05 7.51959e-05 0)
(-8.41716e-05 0.000104944 0)
(-0.000160953 0.000134996 0)
(-0.000253737 0.000164927 0)
(-0.000362439 0.000194411 0)
(-0.000486818 0.000223197 0)
(-0.000626509 0.000251096 0)
(-0.000781053 0.000277965 0)
(-0.000949914 0.000303699 0)
(-0.0011325 0.000328224 0)
(-0.00132819 0.000351493 0)
(-0.00153632 0.000373474 0)
(-0.00175621 0.000394155 0)
(-0.00198717 0.000413535 0)
(-0.00222852 0.000431622 0)
(-0.00247957 0.000448432 0)
(-0.00273962 0.00046399 0)
(-0.00300802 0.000478321 0)
(-0.00328409 0.000491457 0)
(-0.0035672 0.00050343 0)
(-0.0038567 0.000514273 0)
(-0.00415199 0.000524022 0)
(-0.00445246 0.00053271 0)
(-0.00475753 0.000540373 0)
(-0.00506664 0.000547041 0)
(-0.00537923 0.000552748 0)
(-0.00569477 0.000557523 0)
(-0.00601273 0.000561394 0)
(-0.00633263 0.000564387 0)
(-0.00665395 0.000566528 0)
(-0.00697622 0.000567836 0)
(-0.00729898 0.000568333 0)
(-0.00762175 0.000568037 0)
(-0.00794409 0.000566961 0)
(-0.00826556 0.000565121 0)
(-0.00858572 0.000562527 0)
(-0.00890414 0.000559188 0)
(-0.0092204 0.000555114 0)
(-0.00953406 0.000550308 0)
(-0.00984472 0.000544777 0)
(-0.010152 0.000538524 0)
(-0.0104554 0.00053155 0)
(-0.0107545 0.000523856 0)
(-0.011049 0.000515444 0)
(-0.0113384 0.000506312 0)
(-0.0116224 0.000496459 0)
(-0.0119004 0.000485885 0)
(-0.0121722 0.000474588 0)
(-0.0124372 0.000462568 0)
(-0.0126951 0.000449824 0)
(-0.0129455 0.000436356 0)
(-0.0131879 0.000422164 0)
(-0.013422 0.000407249 0)
(-0.0136473 0.000391616 0)
(-0.0138634 0.000375266 0)
(-0.01407 0.000358206 0)
(-0.0142667 0.000340442 0)
(-0.014453 0.000321982 0)
(-0.0146286 0.000302838 0)
(-0.0147931 0.00028302 0)
(-0.0149461 0.000262545 0)
(-0.0150873 0.000241427 0)
(-0.0152162 0.000219686 0)
(-0.0153327 0.000197344 0)
(-0.0154364 0.000174424 0)
(-0.0155268 0.000150953 0)
(-0.0156039 0.000126959 0)
(-0.0156672 0.000102474 0)
(-0.0157165 7.75326e-05 0)
(-0.0157516 5.2171e-05 0)
(-0.0157723 2.6429e-05 0)
(-0.0157784 3.48838e-07 0)
(-0.0157697 -2.60248e-05 0)
(-0.015746 -5.26446e-05 0)
(-0.0157073 -7.94607e-05 0)
(-0.0156535 -0.000106421 0)
(-0.0155845 -0.000133471 0)
(-0.0155003 -0.000160554 0)
(-0.0154009 -0.000187611 0)
(-0.0152863 -0.000214582 0)
(-0.0151566 -0.000241404 0)
(-0.0150119 -0.000268013 0)
(-0.0148524 -0.000294344 0)
(-0.0146783 -0.000320331 0)
(-0.0144897 -0.000345906 0)
(-0.014287 -0.000371001 0)
(-0.0140703 -0.000395548 0)
(-0.0138401 -0.000419477 0)
(-0.0135967 -0.00044272 0)
(-0.0133406 -0.000465209 0)
(-0.0130721 -0.000486875 0)
(-0.0127917 -0.000507652 0)
(-0.0125 -0.000527474 0)
(-0.0121976 -0.000546276 0)
(-0.0118849 -0.000563997 0)
(-0.0115626 -0.000580576 0)
(-0.0112314 -0.000595955 0)
(-0.010892 -0.000610077 0)
(-0.0105451 -0.000622892 0)
(-0.0101913 -0.000634349 0)
(-0.00983155 -0.000644403 0)
(-0.00946656 -0.000653012 0)
(-0.00909714 -0.000660137 0)
(-0.00872414 -0.000665745 0)
(-0.0083484 -0.000669806 0)
(-0.00797078 -0.000672296 0)
(-0.00759216 -0.000673194 0)
(-0.00721343 -0.000672485 0)
(-0.00683548 -0.00067016 0)
(-0.00645919 -0.000666213 0)
(-0.00608548 -0.000660645 0)
(-0.00571522 -0.000653463 0)
(-0.00534931 -0.000644678 0)
(-0.00498864 -0.000634308 0)
(-0.00463406 -0.000622374 0)
(-0.00428644 -0.000608906 0)
(-0.00394661 -0.000593937 0)
(-0.00361539 -0.000577508 0)
(-0.00329357 -0.000559664 0)
(-0.00298191 -0.000540456 0)
(-0.00268115 -0.00051994 0)
(-0.002392 -0.000498179 0)
(-0.00211511 -0.000475242 0)
(-0.00185111 -0.000451202 0)
(-0.00160059 -0.000426138 0)
(-0.00136408 -0.000400138 0)
(-0.00114206 -0.000373293 0)
(-0.000934961 -0.000345702 0)
(-0.000743161 -0.000317471 0)
(-0.000566968 -0.000288713 0)
(-0.000406627 -0.000259551 0)
(-0.000262311 -0.000230116 0)
(-0.000134118 -0.000200549 0)
(-2.20588e-05 -0.000171005 0)
(7.39412e-05 -0.000141652 0)
(0.000154056 -0.000112674 0)
(0.000218568 -8.42767e-05 0)
(0.000267874 -5.66874e-05 0)
(0.000302503 -3.01628e-05 0)
(0.000323126 -4.99382e-06 0)
(0.000330578 1.84871e-05 0)
(0.000325868 3.98975e-05 0)
(0.000310211 5.87944e-05 0)
(0.000285041 7.46638e-05 0)
(0.000252041 8.69103e-05 0)
(0.000213163 9.4851e-05 0)
(0.000170645 9.77211e-05 0)
(0.000127024 9.47091e-05 0)
(8.5063e-05 8.50501e-05 0)
(4.76758e-05 6.82078e-05 0)
(1.86603e-05 4.42618e-05 0)
(3.41106e-06 1.49518e-05 0)
(3.32551e-06 -2.75603e-05 0)
(1.43636e-05 -5.90686e-05 0)
(3.0188e-05 -7.10201e-05 0)
(4.38817e-05 -6.70106e-05 0)
(5.06391e-05 -5.02554e-05 0)
(4.70649e-05 -2.36101e-05 0)
(3.04127e-05 1.04876e-05 0)
(-1.48262e-06 5.00182e-05 0)
(-5.02436e-05 9.33382e-05 0)
(-0.000117027 0.000139125 0)
(-0.000202597 0.000186323 0)
(-0.000307384 0.000234093 0)
(-0.000431546 0.000281775 0)
(-0.000575014 0.000328847 0)
(-0.000737533 0.000374904 0)
(-0.000918701 0.000419633 0)
(-0.001118 0.000462795 0)
(-0.0013348 0.000504211 0)
(-0.00156844 0.000543752 0)
(-0.00181816 0.000581327 0)
(-0.00208319 0.00061688 0)
(-0.00236272 0.000650378 0)
(-0.00265592 0.000681812 0)
(-0.00296198 0.000711186 0)
(-0.00328004 0.000738521 0)
(-0.00360928 0.000763846 0)
(-0.00394888 0.0007872 0)
(-0.00429803 0.000808625 0)
(-0.00465594 0.00082817 0)
(-0.00502182 0.000845885 0)
(-0.00539492 0.000861822 0)
(-0.00577448 0.000876032 0)
(-0.00615978 0.000888569 0)
(-0.00655012 0.000899482 0)
(-0.00694481 0.00090882 0)
(-0.00734318 0.00091663 0)
(-0.00774457 0.000922955 0)
(-0.00814836 0.000927837 0)
(-0.0085539 0.000931313 0)
(-0.00896061 0.000933419 0)
(-0.00936789 0.000934185 0)
(-0.00977514 0.00093364 0)
(-0.0101818 0.000931808 0)
(-0.0105873 0.000928711 0)
(-0.0109911 0.000924368 0)
(-0.0113927 0.000918794 0)
(-0.0117915 0.000912001 0)
(-0.0121869 0.000904 0)
(-0.0125785 0.0008948 0)
(-0.0129657 0.000884405 0)
(-0.013348 0.00087282 0)
(-0.0137249 0.000860047 0)
(-0.0140958 0.000846088 0)
(-0.0144602 0.000830943 0)
(-0.0148176 0.000814611 0)
(-0.0151675 0.000797092 0)
(-0.0155094 0.000778386 0)
(-0.0158427 0.000758491 0)
(-0.016167 0.000737408 0)
(-0.0164817 0.000715137 0)
(-0.0167863 0.000691682 0)
(-0.0170802 0.000667046 0)
(-0.0173631 0.000641234 0)
(-0.0176344 0.000614253 0)
(-0.0178935 0.000586114 0)
(-0.0181401 0.000556828 0)
(-0.0183735 0.00052641 0)
(-0.0185934 0.000494879 0)
(-0.0187992 0.000462256 0)
(-0.0189905 0.000428565 0)
(-0.0191669 0.000393834 0)
(-0.019328 0.000358095 0)
(-0.0194732 0.000321384 0)
(-0.0196023 0.00028374 0)
(-0.0197147 0.000245208 0)
(-0.0198103 0.000205835 0)
(-0.0198886 0.000165673 0)
(-0.0199493 0.00012478 0)
(-0.0199922 8.32143e-05 0)
(-0.0200169 4.10423e-05 0)
(-0.0200233 -1.66727e-06 0)
(-0.0200111 -4.48411e-05 0)
(-0.0199802 -8.84018e-05 0)
(-0.0199304 -0.000132268 0)
(-0.0198617 -0.000176355 0)
(-0.0197739 -0.000220574 0)
(-0.0196672 -0.000264833 0)
(-0.0195413 -0.000309036 0)
(-0.0193965 -0.000353084 0)
(-0.0192329 -0.000396877 0)
(-0.0190505 -0.000440311 0)
(-0.0188496 -0.000483281 0)
(-0.0186303 -0.000525678 0)
(-0.0183931 -0.000567393 0)
(-0.0181381 -0.000608317 0)
(-0.0178658 -0.000648338 0)
(-0.0175766 -0.000687346 0)
(-0.0172709 -0.00072523 0)
(-0.0169493 -0.000761878 0)
(-0.0166123 -0.000797182 0)
(-0.0162605 -0.000831034 0)
(-0.0158946 -0.000863328 0)
(-0.0155152 -0.000893961 0)
(-0.0151232 -0.000922831 0)
(-0.0147191 -0.000949842 0)
(-0.0143039 -0.0009749 0)
(-0.0138785 -0.000997916 0)
(-0.0134436 -0.00101881 0)
(-0.0130002 -0.00103749 0)
(-0.0125494 -0.0010539 0)
(-0.0120919 -0.00106796 0)
(-0.0116289 -0.00107961 0)
(-0.0111615 -0.0010888 0)
(-0.0106905 -0.00109548 0)
(-0.0102172 -0.00109961 0)
(-0.00974253 -0.00110116 0)
(-0.00926767 -0.0011001 0)
(-0.00879371 -0.00109643 0)
(-0.00832174 -0.00109013 0)
(-0.00785288 -0.0010812 0)
(-0.00738823 -0.00106965 0)
(-0.00692889 -0.00105551 0)
(-0.00647596 -0.0010388 0)
(-0.0060305 -0.00101957 0)
(-0.00559357 -0.000997842 0)
(-0.0051662 -0.000973689 0)
(-0.00474941 -0.000947173 0)
(-0.00434417 -0.000918368 0)
(-0.00395143 -0.000887357 0)
(-0.00357209 -0.000854233 0)
(-0.00320702 -0.000819097 0)
(-0.00285704 -0.000782062 0)
(-0.00252291 -0.000743248 0)
(-0.00220536 -0.000702787 0)
(-0.00190503 -0.000660818 0)
(-0.00162253 -0.000617492 0)
(-0.00135838 -0.000572973 0)
(-0.00111303 -0.000527433 0)
(-0.000886862 -0.000481058 0)
(-0.000680166 -0.000434049 0)
(-0.000493148 -0.000386619 0)
(-0.000325918 -0.000339001 0)
(-0.000178483 -0.000291447 0)
(-5.07383e-05 -0.000244228 0)
(5.75392e-05 -0.000197645 0)
(0.000146703 -0.000152028 0)
(0.00021725 -0.000107741 0)
(0.00026983 -6.5192e-05 0)
(0.000305263 -2.48392e-05 0)
(0.000324556 1.28003e-05 0)
(0.00032892 4.71393e-05 0)
(0.000319791 7.7509e-05 0)
(0.000298848 0.000103148 0)
(0.000268034 0.000123192 0)
(0.000229574 0.000136675 0)
(0.000185988 0.00014254 0)
(0.000140105 0.000139682 0)
(9.49997e-05 0.000127053 0)
(5.39547e-05 0.000103829 0)
(2.14247e-05 6.97231e-05 0)
(3.98861e-06 2.56414e-05 0)
(2.82617e-06 -3.47858e-05 0)
(1.13677e-05 -7.19387e-05 0)
(2.18854e-05 -8.30662e-05 0)
(2.77036e-05 -7.32465e-05 0)
(2.40285e-05 -4.66862e-05 0)
(7.38454e-06 -7.03533e-06 0)
(-2.50424e-05 4.25946e-05 0)
(-7.54839e-05 9.96027e-05 0)
(-0.000145633 0.000161841 0)
(-0.000236713 0.000227551 0)
(-0.000349544 0.000295306 0)
(-0.000484603 0.000363952 0)
(-0.00064207 0.000432565 0)
(-0.000821882 0.000500407 0)
(-0.00102377 0.000566895 0)
(-0.0012473 0.00063157 0)
(-0.00149191 0.00069408 0)
(-0.0017569 0.000754154 0)
(-0.00204151 0.000811593 0)
(-0.00234492 0.000866254 0)
(-0.00266623 0.000918043 0)
(-0.00300454 0.0009669 0)
(-0.0033589 0.0010128 0)
(-0.00372835 0.00105574 0)
(-0.00411194 0.00109575 0)
(-0.0045087 0.00113285 0)
(-0.00491769 0.00116709 0)
(-0.00533794 0.00119853 0)
(-0.00576855 0.00122723 0)
(-0.00620858 0.00125326 0)
(-0.00665715 0.00127669 0)
(-0.00711337 0.00129759 0)
(-0.0075764 0.00131603 0)
(-0.00804539 0.00133208 0)
(-0.00851952 0.00134581 0)
(-0.008998 0.00135729 0)
(-0.00948004 0.00136658 0)
(-0.0099649 0.00137373 0)
(-0.0104518 0.00137879 0)
(-0.0109401 0.00138183 0)
(-0.0114289 0.00138287 0)
(-0.0119177 0.00138197 0)
(-0.0124057 0.00137916 0)
(-0.0128923 0.00137446 0)
(-0.0133768 0.00136791 0)
(-0.0138585 0.00135953 0)
(-0.0143368 0.00134934 0)
(-0.014811 0.00133735 0)
(-0.0152805 0.00132357 0)
(-0.0157446 0.00130802 0)
(-0.0162028 0.0012907 0)
(-0.0166544 0.00127162 0)
(-0.0170987 0.00125077 0)
(-0.0175352 0.00122817 0)
(-0.0179631 0.00120381 0)
(-0.018382 0.00117768 0)
(-0.0187912 0.00114981 0)
(-0.01919 0.00112017 0)
(-0.0195778 0.00108878 0)
(-0.0199541 0.00105564 0)
(-0.0203181 0.00102074 0)
(-0.0206694 0.000984115 0)
(-0.0210072 0.000945753 0)
(-0.0213311 0.000905674 0)
(-0.0216403 0.000863893 0)
(-0.0219344 0.00082043 0)
(-0.0222127 0.000775307 0)
(-0.0224747 0.000728554 0)
(-0.0227198 0.000680202 0)
(-0.0229475 0.00063029 0)
(-0.0231573 0.00057886 0)
(-0.0233486 0.00052596 0)
(-0.023521 0.000471644 0)
(-0.023674 0.000415971 0)
(-0.0238071 0.000359008 0)
(-0.02392 0.000300825 0)
(-0.0240122 0.0002415 0)
(-0.0240834 0.000181116 0)
(-0.0241332 0.000119764 0)
(-0.0241614 5.75388e-05 0)
(-0.0241676 -5.45684e-06 0)
(-0.0241518 -6.91152e-05 0)
(-0.0241135 -0.000133322 0)
(-0.0240528 -0.000197959 0)
(-0.0239695 -0.0002629 0)
(-0.0238635 -0.000328016 0)
(-0.0237348 -0.000393171 0)
(-0.0235834 -0.000458226 0)
(-0.0234095 -0.000523036 0)
(-0.0232131 -0.000587453 0)
(-0.0229945 -0.000651327 0)
(-0.0227538 -0.000714503 0)
(-0.0224913 -0.000776824 0)
(-0.0222075 -0.000838131 0)
(-0.0219025 -0.000898263 0)
(-0.021577 -0.000957059 0)
(-0.0212314 -0.00101436 0)
(-0.0208663 -0.00107 0)
(-0.0204822 -0.00112382 0)
(-0.0200799 -0.00117566 0)
(-0.01966 -0.00122536 0)
(-0.0192233 -0.00127278 0)
(-0.0187706 -0.00131776 0)
(-0.0183029 -0.00136015 0)
(-0.0178209 -0.00139981 0)
(-0.0173257 -0.00143661 0)
(-0.0168183 -0.00147042 0)
(-0.0162997 -0.00150112 0)
(-0.015771 -0.00152859 0)
(-0.0152334 -0.00155272 0)
(-0.0146879 -0.00157343 0)
(-0.0141358 -0.00159061 0)
(-0.0135783 -0.00160419 0)
(-0.0130166 -0.0016141 0)
(-0.012452 -0.00162029 0)
(-0.0118857 -0.00162271 0)
(-0.0113192 -0.00162132 0)
(-0.0107536 -0.0016161 0)
(-0.0101902 -0.00160705 0)
(-0.00963039 -0.00159416 0)
(-0.00907546 -0.00157746 0)
(-0.00852669 -0.00155696 0)
(-0.00798536 -0.00153271 0)
(-0.00745274 -0.00150478 0)
(-0.00693006 -0.00147321 0)
(-0.00641854 -0.0014381 0)
(-0.00591937 -0.00139955 0)
(-0.0054337 -0.00135766 0)
(-0.00496264 -0.00131255 0)
(-0.00450726 -0.00126436 0)
(-0.00406856 -0.00121324 0)
(-0.00364752 -0.00115936 0)
(-0.00324503 -0.00110289 0)
(-0.00286194 -0.00104402 0)
(-0.002499 -0.00098297 0)
(-0.00215692 -0.000919953 0)
(-0.0018363 -0.000855209 0)
(-0.00153769 -0.000788995 0)
(-0.0012615 -0.000721583 0)
(-0.00100809 -0.000653269 0)
(-0.000777681 -0.000584366 0)
(-0.000570401 -0.000515216 0)
(-0.00038625 -0.000446186 0)
(-0.0002251 -0.000377674 0)
(-8.66852e-05 -0.000310115 0)
(2.94114e-05 -0.000243986 0)
(0.000123767 -0.00017981 0)
(0.000197136 -0.000118171 0)
(0.000250459 -5.97128e-05 0)
(0.000284883 -5.16056e-06 0)
(0.00030178 4.46748e-05 0)
(0.000302756 8.88817e-05 0)
(0.000289677 0.000126438 0)
(0.000264681 0.000156202 0)
(0.000230193 0.000176917 0)
(0.000188942 0.000187221 0)
(0.000143981 0.000185699 0)
(9.8641e-05 0.000170961 0)
(5.65271e-05 0.00014178 0)
(2.26047e-05 9.72996e-05 0)
(4.23084e-06 3.73498e-05 0)
(2.13267e-06 -4.01153e-05 0)
(7.23532e-06 -7.98718e-05 0)
(1.06345e-05 -8.73737e-05 0)
(6.28406e-06 -6.90042e-05 0)
(-1.03843e-05 -2.99176e-05 0)
(-4.28108e-05 2.5461e-05 0)
(-9.3781e-05 9.3361e-05 0)
(-0.000165509 0.000170612 0)
(-0.000259684 0.000254567 0)
(-0.00037754 0.000343034 0)
(-0.000519906 0.000434207 0)
(-0.000687265 0.000526611 0)
(-0.000879801 0.000619042 0)
(-0.00109744 0.000710533 0)
(-0.00133989 0.000800306 0)
(-0.00160669 0.000887744 0)
(-0.00189721 0.000972362 0)
(-0.00221072 0.00105379 0)
(-0.00254638 0.00113174 0)
(-0.00290328 0.00120601 0)
(-0.00328044 0.00127646 0)
(-0.00367687 0.001343 0)
(-0.0040915 0.00140558 0)
(-0.00452328 0.00146418 0)
(-0.00497113 0.00151882 0)
(-0.00543398 0.00156954 0)
(-0.00591076 0.00161638 0)
(-0.00640039 0.00165943 0)
(-0.00690182 0.00169875 0)
(-0.00741403 0.00173442 0)
(-0.00793598 0.00176655 0)
(-0.00846668 0.00179522 0)
(-0.00900516 0.00182052 0)
(-0.00955043 0.00184253 0)
(-0.0101016 0.00186136 0)
(-0.0106577 0.00187709 0)
(-0.0112178 0.00188978 0)
(-0.0117812 0.00189953 0)
(-0.0123468 0.00190641 0)
(-0.0129139 0.00191047 0)
(-0.0134817 0.00191178 0)
(-0.0140493 0.00191038 0)
(-0.0146159 0.00190634 0)
(-0.0151807 0.00189969 0)
(-0.0157431 0.00189046 0)
(-0.0163021 0.0018787 0)
(-0.0168571 0.00186441 0)
(-0.0174072 0.00184764 0)
(-0.0179518 0.00182838 0)
(-0.0184901 0.00180666 0)
(-0.0190214 0.0017825 0)
(-0.0195449 0.00175588 0)
(-0.0200599 0.00172683 0)
(-0.0205656 0.00169534 0)
(-0.0210615 0.00166141 0)
(-0.0215466 0.00162506 0)
(-0.0220204 0.00158628 0)
(-0.022482 0.00154507 0)
(-0.0229308 0.00150144 0)
(-0.0233661 0.0014554 0)
(-0.0237872 0.00140695 0)
(-0.0241933 0.0013561 0)
(-0.0245837 0.00130288 0)
(-0.0249579 0.0012473 0)
(-0.025315 0.00118939 0)
(-0.0256544 0.00112916 0)
(-0.0259756 0.00106667 0)
(-0.0262777 0.00100195 0)
(-0.0265602 0.000935036 0)
(-0.0268225 0.000865995 0)
(-0.0270639 0.000794883 0)
(-0.027284 0.000721769 0)
(-0.027482 0.000646727 0)
(-0.0276576 0.000569841 0)
(-0.0278102 0.000491203 0)
(-0.0279393 0.00041091 0)
(-0.0280445 0.000329072 0)
(-0.0281254 0.000245804 0)