/*--------------------------------*- C++ -*----------------------------------*\
| =========                 |                                                 |
| \\      /  F ield         | OpenFOAM: The Open Source CFD Toolbox           |
|  \\    /   O peration     | Version:  2.1.1                                 |
|   \\  /    A nd           | Web:      www.OpenFOAM.org                      |
|    \\/     M anipulation  |                                                 |
\*---------------------------------------------------------------------------*/
FoamFile
{
    version     2.0;
    format      ascii;
    class       volScalarField;
    location    "0.8";
    object      p;
}
// * * * * * * * * * * * * * * * * * * * * * * * * * * * * * * * * * * * * * //

dimensions      [0 2 -2 0 0 0 0];

internalField   nonuniform List<scalar> 
25921
(
-2.21279e-08
1.18589e-05
1.28485e-05
-2.35696e-06
-3.42042e-05
-8.18544e-05
-0.000143755
-0.000218036
-0.000302785
-0.000396171
-0.000496488
-0.000602177
-0.000711821
-0.000824145
-0.000938005
-0.00105238
-0.00116635
-0.00127911
-0.00138994
-0.00149821
-0.00160337
-0.00170491
-0.00180241
-0.0018955
-0.00198385
-0.00206718
-0.00214525
-0.00221785
-0.0022848
-0.00234596
-0.0024012
-0.0024504
-0.00249349
-0.00253039
-0.00256103
-0.00258537
-0.00260337
-0.002615
-0.00262022
-0.00261902
-0.00261138
-0.0025973
-0.00257675
-0.00254974
-0.00251627
-0.00247632
-0.00242991
-0.00237703
-0.0023177
-0.00225193
-0.00217972
-0.0021011
-0.00201608
-0.0019247
-0.00182698
-0.00172296
-0.00161269
-0.00149622
-0.0013736
-0.00124491
-0.00111022
-0.000969619
-0.000823208
-0.000671094
-0.000513401
-0.000350263
-0.000181827
-8.25421e-06
0.000170279
0.000353582
0.00054145
0.000733663
0.000929984
0.00113016
0.00133393
0.001541
0.00175107
0.00196384
0.00217897
0.00239611
0.00261491
0.002835
0.00305598
0.00327746
0.00349902
0.00372025
0.0039407
0.00415995
0.00437755
0.00459303
0.00480594
0.00501581
0.00522219
0.00542461
0.00562259
0.0058157
0.00600346
0.00618543
0.00636117
0.00653025
0.00669225
0.00684677
0.00699342
0.00713184
0.00726167
0.00738259
0.00749429
0.00759649
0.00768894
0.00777142
0.00784373
0.00790571
0.00795723
0.00799819
0.00802853
0.00804821
0.00805726
0.00805571
0.00804366
0.00802121
0.00798853
0.00794582
0.00789332
0.00783129
0.00776006
0.00767997
0.0075914
0.00749478
0.00739057
0.00727926
0.00716138
0.00703749
0.00690819
0.00677409
0.00663585
0.00649416
0.00634974
0.00620331
0.00605566
0.00590757
0.00575988
0.00561341
0.00546905
0.00532769
0.00519024
0.00505765
0.00493088
0.0048109
0.00469871
0.00459531
0.00450172
0.00441892
0.00434788
0.00428948
0.00424448
0.00421339
0.00419633
0.00419264
0.00420041
0.0042158
0.00423165
-1.19462e-05
-3.89934e-08
-1.3692e-06
-1.73462e-05
-4.71843e-05
-9.0404e-05
-0.000146016
-0.000212649
-0.000288811
-0.000373006
-0.000463791
-0.000559804
-0.000659783
-0.000762567
-0.000867101
-0.000972428
-0.00107768
-0.0011821
-0.00128497
-0.00138569
-0.00148371
-0.00157854
-0.00166976
-0.00175698
-0.00183988
-0.00191816
-0.00199158
-0.00205992
-0.00212299
-0.00218064
-0.00223271
-0.0022791
-0.0023197
-0.00235444
-0.00238323
-0.00240602
-0.00242276
-0.0024334
-0.00243793
-0.0024363
-0.00242849
-0.00241449
-0.00239428
-0.00236785
-0.0023352
-0.00229632
-0.00225121
-0.00219988
-0.00214232
-0.00207855
-0.00200858
-0.00193243
-0.00185011
-0.00176166
-0.00166711
-0.00156649
-0.00145984
-0.00134723
-0.00122871
-0.00110435
-0.000974221
-0.000838417
-0.000697033
-0.000550178
-0.000397973
-0.000240549
-7.80525e-05
8.93595e-05
0.000261515
0.000438228
0.000619298
0.000804512
0.000993639
0.00118644
0.00138264
0.00158199
0.00178418
0.00198891
0.00219587
0.00240472
0.00261511
0.0028267
0.0030391
0.00325194
0.00346481
0.00367732
0.00388905
0.00409957
0.00430847
0.0045153
0.00471963
0.00492102
0.00511902
0.00531319
0.00550308
0.00568827
0.00586832
0.00604279
0.00621128
0.00637337
0.00652868
0.00667681
0.0068174
0.0069501
0.00707459
0.00719055
0.0072977
0.00739577
0.00748454
0.00756378
0.00763332
0.00769301
0.00774273
0.00778239
0.00781193
0.00783134
0.00784062
0.00783984
0.00782907
0.00780843
0.00777809
0.00773823
0.00768909
0.00763093
0.00756406
0.00748882
0.00740557
0.00731473
0.00721674
0.00711207
0.00700123
0.00688477
0.00676324
0.00663726
0.00650743
0.00637443
0.00623893
0.00610164
0.0059633
0.00582464
0.00568647
0.00554957
0.00541476
0.00528288
0.0051548
0.00503137
0.00491349
0.00480205
0.00469794
0.00460206
0.00451527
0.00443841
0.00437228
0.00431753
0.00427469
0.00424404
0.00422548
0.00421827
0.00422088
0.00423165
0.0042475
-1.29776e-05
1.28972e-06
-3.87187e-08
-1.59153e-05
-4.42973e-05
-8.46262e-05
-0.000136088
-0.000197537
-0.000267721
-0.000345366
-0.000429216
-0.000518065
-0.000610778
-0.000706297
-0.000803647
-0.000901935
-0.00100035
-0.00109815
-0.00119468
-0.00128934
-0.0013816
-0.00147098
-0.00155706
-0.00163946
-0.00171786
-0.00179197
-0.00186153
-0.00192632
-0.00198614
-0.00204083
-0.00209025
-0.00213426
-0.00217277
-0.00220567
-0.00223289
-0.00225437
-0.00227004
-0.00227986
-0.0022838
-0.00228181
-0.00227388
-0.00225997
-0.00224007
-0.00221416
-0.00218225
-0.00214431
-0.00210035
-0.00205036
-0.00199436
-0.00193234
-0.00186433
-0.00179033
-0.00171037
-0.00162447
-0.00153267
-0.001435
-0.0013315
-0.00122223
-0.00110725
-0.000986622
-0.000860426
-0.000728747
-0.000591681
-0.000449335
-0.000301828
-0.000149289
8.13928e-06
0.000170302
0.000337032
0.000508147
0.000683453
0.000862739
0.00104578
0.00123235
0.00142219
0.00161502
0.00181058
0.00200857
0.00220868
0.00241059
0.00261396
0.00281845
0.0030237
0.00322933
0.00343498
0.00364024
0.00384472
0.00404802
0.00424971
0.00444939
0.00464663
0.004841
0.00503209
0.00521946
0.00540269
0.00558136
0.00575506
0.00592337
0.0060859
0.00624226
0.00639207
0.00653495
0.00667057
0.0067986
0.0069187
0.0070306
0.00713402
0.0072287
0.00731444
0.00739102
0.00745828
0.00751608
0.00756431
0.00760288
0.00763175
0.00765089
0.00766034
0.00766014
0.00765037
0.00763117
0.00760267
0.00756508
0.00751862
0.00746355
0.00740016
0.00732879
0.0072498
0.00716358
0.00707056
0.00697121
0.00686601
0.00675548
0.00664017
0.00652066
0.00639755
0.00627148
0.00614309
0.00601307
0.00588211
0.00575094
0.0056203
0.00549095
0.00536366
0.00523922
0.00511845
0.00500216
0.00489116
0.00478628
0.00468834
0.00459813
0.00451645
0.00444401
0.00438149
0.00432945
0.00428829
0.00425824
0.00423923
0.00423067
0.00423161
0.00424241
0.0042629
2.20538e-06
1.72849e-05
1.58271e-05
-9.41804e-08
-2.7752e-05
-6.64178e-05
-0.000115289
-0.000173313
-0.000239371
-0.000312336
-0.000391088
-0.000474546
-0.000561683
-0.000651531
-0.000743189
-0.000835829
-0.000928687
-0.00102107
-0.00111235
-0.00120195
-0.00128937
-0.00137413
-0.00145584
-0.00153412
-0.00160865
-0.00167915
-0.00174535
-0.00180704
-0.00186402
-0.00191612
-0.00196319
-0.0020051
-0.00204175
-0.00207303
-0.00209886
-0.00211917
-0.0021339
-0.002143
-0.00214643
-0.00214414
-0.00213611
-0.00212231
-0.00210271
-0.00207731
-0.00204609
-0.00200904
-0.00196615
-0.00191743
-0.00186287
-0.00180248
-0.00173628
-0.00166428
-0.00158649
-0.00150294
-0.00141367
-0.00131871
-0.0012181
-0.00111189
-0.00100014
-0.000882924
-0.000760308
-0.000632379
-0.000499232
-0.000360971
-0.000217713
-6.95832e-05
8.32782e-05
0.00024072
0.000402579
0.000568678
0.000738826
0.000912821
0.00109044
0.00127147
0.00145564
0.00164271
0.0018324
0.00202443
0.00221849
0.00241428
0.00261148
0.00280973
0.00300871
0.00320804
0.00340736
0.00360629
0.00380446
0.00400145
0.00419688
0.00439034
0.00458143
0.00476972
0.00495482
0.00513631
0.00531378
0.00548683
0.00565505
0.00581805
0.00597545
0.00612687
0.00627195
0.00641033
0.00654168
0.00666567
0.00678201
0.00689042
0.00699063
0.0070824
0.00716553
0.00723982
0.00730511
0.00736127
0.0074082
0.00744581
0.00747406
0.00749295
0.0075025
0.00750275
0.00749379
0.00747574
0.00744877
0.00741305
0.0073688
0.00731629
0.0072558
0.00718764
0.00711219
0.00702981
0.00694093
0.006846
0.00674548
0.00663988
0.00652974
0.00641561
0.00629807
0.00617774
0.00605524
0.00593122
0.00580636
0.00568134
0.00555689
0.00543371
0.00531255
0.00519416
0.0050793
0.00496873
0.00486323
0.00476355
0.00467045
0.00458468
0.00450693
0.00443787
0.00437809
0.00432812
0.00428833
0.00425898
0.00424012
0.00423144
0.00423246
0.00424506
0.00427077
3.41249e-05
4.72264e-05
4.42489e-05
2.74616e-05
-2.99528e-07
-3.82077e-05
-8.54602e-05
-0.000141077
-0.000204043
-0.000273347
-0.000347988
-0.000426994
-0.000509433
-0.000594425
-0.000681144
-0.000768823
-0.000856752
-0.000944281
-0.00103082
-0.00111582
-0.0011988
-0.00127931
-0.00135697
-0.00143141
-0.00150232
-0.00156942
-0.00163246
-0.00169121
-0.00174549
-0.00179513
-0.00183997
-0.00187988
-0.00191475
-0.00194448
-0.00196898
-0.00198818
-0.00200202
-0.00201044
-0.00201339
-0.00201083
-0.00200273
-0.00198906
-0.0019698
-0.00194492
-0.00191441
-0.00187826
-0.00183646
-0.00178901
-0.00173591
-0.00167716
-0.00161277
-0.00154276
-0.00146715
-0.00138595
-0.0012992
-0.00120693
-0.00110918
-0.00100601
-0.000897466
-0.000783617
-0.000664535
-0.000540303
-0.000411012
-0.000276765
-0.000137674
6.13694e-06
0.000154532
0.000307365
0.000464475
0.00062569
0.000790827
0.000959686
0.00113206
0.00130771
0.00148642
0.00166792
0.00185196
0.00203826
0.00222652
0.00241644
0.00260771
0.0028
0.00299298
0.0031863
0.0033796
0.00357251
0.00376467
0.00395568
0.00414517
0.00433274
0.004518
0.00470055
0.00487999
0.00505593
0.00522797
0.00539572
0.00555879
0.0057168
0.00586937
0.00601615
0.00615679
0.00629093
0.00641827
0.00653849
0.0066513
0.00675643
0.00685363
0.00694267
0.00702335
0.00709548
0.00715891
0.00721352
0.00725921
0.00729589
0.00732355
0.00734216
0.00735176
0.00735239
0.00734414
0.00732713
0.00730151
0.00726748
0.00722524
0.00717504
0.00711717
0.00705194
0.00697969
0.00690081
0.00681569
0.00672476
0.0066285
0.00652738
0.00642193
0.00631268
0.0062002
0.00608506
0.00596788
0.00584929
0.00572992
0.00561045
0.00549155
0.0053739
0.00525821
0.0051452
0.00503557
0.00493006
0.00482937
0.00473422
0.00464531
0.00456333
0.00448892
0.0044227
0.00436523
0.00431698
0.00427835
0.00424965
0.00423107
0.00422252
0.00422388
0.00423799
0.00426736
8.20538e-05
9.07213e-05
8.47421e-05
6.60918e-05
3.73018e-05
-7.75682e-07
-4.73519e-05
-0.000101518
-0.000162355
-0.000228949
-0.000300403
-0.000375842
-0.000454424
-0.000535349
-0.000617861
-0.000701257
-0.000784879
-0.000868124
-0.000950435
-0.00103131
-0.00111027
-0.00118692
-0.00126087
-0.00133178
-0.00139934
-0.00146329
-0.00152338
-0.00157939
-0.00163114
-0.00167846
-0.0017212
-0.00175922
-0.00179241
-0.00182068
-0.00184393
-0.00186209
-0.0018751
-0.00188288
-0.0018854
-0.00188262
-0.00187448
-0.00186098
-0.00184206
-0.00181773
-0.00178795
-0.00175271
-0.00171201
-0.00166584
-0.0016142
-0.00155709
-0.00149452
-0.00142649
-0.00135304
-0.00127417
-0.00118992
-0.00110031
-0.0010054
-0.000905217
-0.000799829
-0.000689292
-0.00057368
-0.00045307
-0.000327553
-0.000197227
-6.22018e-05
7.74027e-05
0.000221455
0.000369812
0.000522319
0.000678809
0.000839103
0.00100301
0.00117032
0.00134082
0.00151427
0.00169044
0.00186907
0.00204988
0.0022326
0.00241693
0.00260257
0.0027892
0.00297649
0.00316411
0.0033517
0.00353892
0.00372541
0.00391078
0.00409468
0.00427671
0.00445649
0.00463365
0.00480779
0.00497853
0.00514549
0.00530829
0.00546654
0.00561989
0.00576796
0.00591042
0.00604692
0.00617713
0.00630073
0.00641744
0.00652696
0.00662904
0.00672344
0.00680993
0.00688833
0.00695844
0.00702013
0.00707328
0.0071178
0.0071536
0.00718067
0.007199
0.0072086
0.00720954
0.0072019
0.0071858
0.00716139
0.00712885
0.00708839
0.00704026
0.00698474
0.00692213
0.00685276
0.00677701
0.00669526
0.00660794
0.00651549
0.00641839
0.00631715
0.00621227
0.0061043
0.00599381
0.00588139
0.00576763
0.00565316
0.0055386
0.00542461
0.00531185
0.00520098
0.00509267
0.00498761
0.00488647
0.00478993
0.00469866
0.0046133
0.00453451
0.00446287
0.00439897
0.00434333
0.00429643
0.00425868
0.00423044
0.00421201
0.00420346
0.00420492
0.00421974
0.00425085
0.000144574
0.000146883
0.000136576
0.000115068
8.43196e-05
4.5159e-05
-1.65272e-06
-5.52848e-05
-0.000114906
-0.000179695
-0.000248845
-0.000321568
-0.000397106
-0.000474734
-0.000553765
-0.000633553
-0.000713496
-0.000793035
-0.000871655
-0.000948881
-0.00102428
-0.00109746
-0.00116807
-0.00123577
-0.00130029
-0.00136135
-0.00141873
-0.00147222
-0.00152163
-0.0015668
-0.00160759
-0.00164385
-0.00167549
-0.0017024
-0.00172449
-0.00174169
-0.00175393
-0.00176115
-0.00176329
-0.00176032
-0.0017522
-0.00173889
-0.00172036
-0.00169658
-0.00166755
-0.00163325
-0.00159366
-0.00154877
-0.00149859
-0.00144311
-0.00138233
-0.00131628
-0.00124496
-0.00116839
-0.0010866
-0.000999616
-0.000907481
-0.000810237
-0.000707935
-0.000600637
-0.000488409
-0.000371328
-0.00024948
-0.000122961
8.12417e-06
0.000143659
0.000283517
0.000427558
0.000575635
0.000727583
0.00088323
0.00104239
0.00120486
0.00137044
0.00153889
0.00170998
0.00188347
0.00205908
0.00223656
0.0024156
0.00259592
0.00277721
0.00295915
0.00314141
0.00332366
0.00350555
0.00368672
0.00386683
0.0040455
0.00422237
0.00439707
0.00456921
0.00473843
0.00490436
0.00506661
0.00522482
0.00537862
0.00552766
0.00567159
0.00581006
0.00594274
0.00606932
0.00618949
0.00630296
0.00640946
0.00650874
0.00660055
0.0066847
0.00676098
0.00682924
0.00688932
0.00694111
0.00698453
0.00701951
0.00704601
0.00706403
0.00707361
0.00707479
0.00706765
0.00705233
0.00702896
0.00699772
0.00695883
0.00691252
0.00685906
0.00679876
0.00673193
0.00665894
0.00658017
0.00649602
0.00640694
0.00631339
0.00621585
0.00611482
0.00601083
0.00590442
0.00579616
0.00568664
0.00557643
0.00546616
0.00535644
0.0052479
0.00514117
0.0050369
0.00493573
0.0048383
0.00474524
0.00465719
0.00457475
0.00449853
0.00442909
0.00436698
0.00431271
0.00426675
0.00422951
0.00420141
0.00418283
0.00417395
0.00417503
0.00418961
0.00422067
0.000219959
0.000214452
0.000198695
0.000173417
0.000139843
9.8754e-05
5.08727e-05
-3.05493e-06
-6.22848e-05
-0.000126082
-0.000193722
-0.0002645
-0.000337733
-0.000412767
-0.000488981
-0.000565786
-0.000642633
-0.000719009
-0.000794438
-0.000868483
-0.000940741
-0.00101084
-0.00107846
-0.00114328
-0.00120504
-0.00126348
-0.00131839
-0.00136957
-0.00141683
-0.00146003
-0.00149901
-0.00153366
-0.00156386
-0.00158952
-0.00161055
-0.00162688
-0.00163843
-0.00164514
-0.00164697
-0.00164387
-0.0016358
-0.00162272
-0.0016046
-0.00158143
-0.00155317
-0.00151981
-0.00148133
-0.00143774
-0.00138901
-0.00133516
-0.00127618
-0.00121208
-0.00114287
-0.00106858
-0.000989215
-0.000904815
-0.000815411
-0.000721046
-0.000621769
-0.000517636
-0.000408712
-0.00029507
-0.000176792
-5.39692e-05
7.3296e-05
0.000204892
0.000340697
0.000480577
0.000624387
0.000771971
0.000923161
0.00107778
0.00123562
0.0013965
0.00156018
0.00172645
0.00189505
0.00206574
0.00223825
0.0024123
0.00258761
0.00276387
0.00294078
0.00311801
0.00329525
0.00347215
0.00364837
0.00382356
0.00399737
0.00416944
0.00433941
0.0045069
0.00467157
0.00483303
0.00499093
0.00514491
0.00529461
0.00543969
0.00557979
0.0057146
0.00584378
0.00596703
0.00608404
0.00619455
0.00629828
0.00639498
0.00648443
0.00656642
0.00664077
0.00670731
0.00676591
0.00681645
0.00685884
0.00689304
0.00691899
0.00693672
0.00694623
0.00694758
0.00694087
0.0069262
0.00690372
0.00687361
0.00683608
0.00679135
0.00673969
0.0066814
0.00661679
0.00654621
0.00647004
0.00638868
0.00630254
0.00621209
0.00611777
0.0060201
0.00591957
0.00581671
0.00571207
0.0056062
0.00549968
0.0053931
0.00528704
0.0051821
0.00507889
0.00497803
0.00488012
0.00478576
0.00469556
0.00461012
0.00453
0.00445579
0.004388
0.00432718
0.0042738
0.00422833
0.00419121
0.00416286
0.00414373
0.00413404
0.00413416
0.00414751
0.00417696
0.000306438
0.00029204
0.000269935
0.00024009
0.000202922
0.000159147
0.000109447
5.448e-05
-5.09651e-06
-6.86288e-05
-0.000135473
-0.000204998
-0.000276595
-0.000349676
-0.000423681
-0.000498078
-0.000572369
-0.000646086
-0.000718794
-0.000790092
-0.000859608
-0.000927003
-0.000991967
-0.00105422
-0.0011135
-0.00116958
-0.00122225
-0.00127132
-0.00131663
-0.00135802
-0.00139537
-0.00142854
-0.00145743
-0.00148196
-0.00150203
-0.00151756
-0.0015285
-0.00153479
-0.00153637
-0.00153319
-0.00152522
-0.00151242
-0.00149475
-0.0014722
-0.00144474
-0.00141235
-0.00137501
-0.00133271
-0.00128545
-0.00123323
-0.00117603
-0.00111388
-0.00104677
-0.000974722
-0.000897758
-0.000815902
-0.000729186
-0.000637649
-0.000541336
-0.000440301
-0.000334604
-0.000224315
-0.000109511
9.7193e-06
0.00013328
0.000261063
0.000392951
0.000528816
0.000668518
0.000811906
0.000958818
0.00110908
0.0012625
0.00141889
0.00157804
0.00173971
0.00190368
0.00206971
0.00223752
0.00240686
0.00257744
0.00274897
0.00292116
0.00309368
0.00326623
0.00343847
0.00361007
0.00378069
0.00394998
0.00411759
0.00428318
0.00444637
0.00460682
0.00476417
0.00491807
0.00506815
0.00521408
0.00535552
0.00549212
0.00562357
0.00574955
0.00586975
0.00598389
0.00609168
0.00619288
0.00628724
0.00637453
0.00645456
0.00652713
0.00659211
0.00664934
0.00669873
0.00674018
0.00677364
0.00679907
0.00681649
0.00682591
0.00682739
0.00682101
0.00680689
0.00678517
0.00675602
0.00671965
0.00667628
0.00662618
0.00656962
0.00650693
0.00643845
0.00636453
0.00628557
0.00620198
0.00611419
0.00602267
0.00592788
0.00583033
0.00573052
0.00562897
0.00552623
0.00542285
0.00531938
0.00521641
0.00511449
0.00501422
0.00491617
0.00482093
0.00472906
0.00464114
0.00455773
0.00447938
0.00440663
0.00433998
0.00427995
0.00422699
0.00418158
0.00414414
0.00411512
0.00409497
0.00408396
0.00408247
0.0040937
0.00412023
0.000402312
0.000378253
0.000349094
0.000314023
0.000272595
0.00022547
0.000173288
0.000116621
5.60391e-05
-7.88073e-06
-7.45691e-05
-0.000143468
-0.000214035
-0.000285746
-0.000358099
-0.000430618
-0.000502854
-0.000574382
-0.00064481
-0.000713771
-0.000780927
-0.000845967
-0.000908607
-0.000968585
-0.00102567
-0.00107963
-0.0011303
-0.00117748
-0.00122102
-0.00126078
-0.00129664
-0.00132848
-0.00135619
-0.0013797
-0.00139891
-0.00141376
-0.00142418
-0.00143011
-0.0014315
-0.00142831
-0.00142049
-0.00140802
-0.00139085
-0.00136896
-0.00134232
-0.00131092
-0.00127474
-0.00123376
-0.00118797
-0.00113737
-0.00108196
-0.00102174
-0.000956714
-0.000886896
-0.000812303
-0.000732957
-0.000648887
-0.000560129
-0.000466724
-0.000368721
-0.000266177
-0.000159158
-4.77369e-05
6.80032e-05
0.00018797
0.000312061
0.000440164
0.000572156
0.000707903
0.00084726
0.00099007
0.00113616
0.00128536
0.00143748
0.0015923
0.00174961
0.00190919
0.0020708
0.00223418
0.00239907
0.00256521
0.0027323
0.00290006
0.00306818
0.00323634
0.00340424
0.00357154
0.00373791
0.00390301
0.00406651
0.00422804
0.00438727
0.00454385
0.00469742
0.00484764
0.00499416
0.00513664
0.00527475
0.00540816
0.00553655
0.00565961
0.00577704
0.00588857
0.0059939
0.00609281
0.00618504
0.00627037
0.00634862
0.00641959
0.00648314
0.00653914
0.00658747
0.00662805
0.00666083
0.00668578
0.00670289
0.0067122
0.00671376
0.00670764
0.00669397
0.00667288
0.00664454
0.00660916
0.00656695
0.00651817
0.0064631
0.00640204
0.00633534
0.00626334
0.00618643
0.00610501
0.0060195
0.00593035
0.00583801
0.00574298
0.00564573
0.00554679
0.00544667
0.0053459
0.00524503
0.0051446
0.00504516
0.00494727
0.00485147
0.00475834
0.0046684
0.00458221
0.0045003
0.00442319
0.00435139
0.00428538
0.00422566
0.00417267
0.00412686
0.00408866
0.00405852
0.00403687
0.00402401
0.00402032
0.00402864
0.00405119
0.000505989
0.000471731
0.000434981
0.000394145
0.0003479
0.000296853
0.000241612
0.000182662
0.000120492
5.56039e-05
-1.15025e-05
-8.03372e-05
-0.000150422
-0.000221292
-0.000292504
-0.000363632
-0.000434274
-0.000504053
-0.000572612
-0.000639623
-0.00070478
-0.000767802
-0.000828428
-0.000886422
-0.000941569
-0.000993671
-0.00104255
-0.00108805
-0.00113002
-0.00116832
-0.00120285
-0.0012335
-0.00126017
-0.00128278
-0.00130124
-0.0013155
-0.00132548
-0.00133114
-0.00133242
-0.00132928
-0.00132168
-0.00130958
-0.00129295
-0.00127176
-0.00124598
-0.0012156
-0.0011806
-0.00114095
-0.00109665
-0.00104768
-0.000994056
-0.000935762
-0.000872807
-0.000805199
-0.000732951
-0.000656084
-0.000574621
-0.000488595
-0.000398043
-0.000303009
-0.000203548
-9.97196e-05
8.40749e-06
0.000120755
0.000237236
0.000357752
0.000482198
0.000610454
0.000742394
0.000877878
0.00101675
0.00115886
0.00130403
0.00145206
0.00160277
0.00175595
0.00191137
0.0020688
0.002228
0.00238871
0.00255067
0.00271361
0.00287722
0.00304122
0.00320531
0.00336917
0.00353249
0.00369493
0.00385616
0.00401585
0.00417367
0.00432926
0.00448228
0.00463239
0.00477925
0.00492253
0.00506187
0.00519696
0.00532748
0.0054531
0.00557353
0.00568846
0.00579763
0.00590075
0.00599759
0.00608791
0.00617149
0.00624813
0.00631767
0.00637994
0.00643482
0.0064822
0.00652199
0.00655415
0.00657865
0.00659547
0.00660466
0.00660625
0.00660034
0.00658703
0.00656645
0.00653879
0.00650423
0.00646299
0.00641532
0.00636149
0.00630181
0.00623661
0.00616622
0.00609103
0.00601142
0.00592781
0.00584063
0.00575034
0.00565739
0.00556226
0.00546546
0.00536748
0.00526884
0.00517005
0.00507165
0.00497417
0.00487813
0.00478407
0.00469252
0.00460399
0.00451901
0.00443808
0.00436171
0.00429037
0.00422453
0.00416465
0.00411118
0.00406453
0.00402514
0.00399343
0.00396982
0.00395461
0.00394816
0.00395291
0.00397064
0.000615996
0.000571175
0.000526436
0.000479406
0.000427882
0.000372431
0.000313634
0.000251894
0.000187624
0.000121255
5.32208e-05
-1.6053e-05
-8.61481e-05
-0.000156658
-0.000227192
-0.000297374
-0.00036685
-0.000435282
-0.000502357
-0.000567781
-0.000631279
-0.0006926
-0.000751511
-0.000807798
-0.000861269
-0.000911743
-0.000959062
-0.00100308
-0.00104366
-0.00108068
-0.00111405
-0.00114365
-0.0011694
-0.00119123
-0.00120906
-0.00122283
-0.00123247
-0.00123794
-0.00123919
-0.00123617
-0.00122885
-0.00121718
-0.00120114
-0.00118069
-0.00115581
-0.00112648
-0.00109268
-0.00105438
-0.00101158
-0.000964262
-0.000912421
-0.000856053
-0.00079516
-0.000729746
-0.000659822
-0.000585404
-0.000506512
-0.000423174
-0.000335424
-0.000243301
-0.000146855
-4.61406e-05
5.87775e-05
0.000167826
0.000280924
0.000397979
0.00051889
0.000643544
0.00077182
0.000903583
0.00103869
0.00117698
0.0013183
0.00146245
0.00160926
0.00175851
0.00190999
0.00206349
0.00221875
0.00237553
0.00253358
0.00269261
0.00285236
0.00301254
0.00317284
0.00333296
0.00349259
0.0036514
0.00380908
0.00396528
0.00411968
0.00427195
0.00442173
0.0045687
0.00471252
0.00485285
0.00498936
0.00512173
0.00524964
0.00537278
0.00549084
0.00560354
0.0057106
0.00581176
0.00590676
0.00599538
0.0060774
0.00615262
0.00622088
0.00628202
0.00633591
0.00638244
0.00642154
0.00645314
0.00647722
0.00649378
0.00650283
0.00650443
0.00649867
0.00648565
0.00646549
0.00643838
0.00640449
0.00636404
0.00631729
0.00626449
0.00620594
0.00614197
0.0060729
0.00599912
0.00592099
0.00583893
0.00575336
0.00566471
0.00557344
0.00548001
0.00538491
0.00528862
0.00519164
0.00509447
0.00499762
0.0049016
0.00480692
0.0047141
0.00462363
0.00453602
0.00445176
0.00437133
0.00429521
0.00422387
0.00415774
0.00409727
0.00404288
0.00399497
0.00395396
0.00392024
0.00389423
0.00387621
0.00386653
0.00386713
0.00387939
0.000730979
0.000675361
0.000622343
0.000568785
0.00051161
0.000451353
0.000388578
0.000323612
0.000256795
0.000188496
0.000119082
4.89211e-05
-2.16263e-05
-9.22081e-05
-0.000162484
-0.000232127
-0.000300826
-0.000368288
-0.000434234
-0.000498407
-0.000560566
-0.000620487
-0.000677965
-0.000732811
-0.000784852
-0.00083393
-0.000879901
-0.000922634
-0.000962011
-0.000997925
-0.00103028
-0.00105898
-0.00108396
-0.00110513
-0.00112244
-0.00113582
-0.00114522
-0.00115059
-0.00115189
-0.00114906
-0.00114208
-0.0011309
-0.0011155
-0.00109585
-0.00107191
-0.00104367
-0.0010111
-0.000974178
-0.000932893
-0.000887232
-0.000837184
-0.000782742
-0.000723904
-0.000660673
-0.000593054
-0.000521059
-0.000444705
-0.000364015
-0.000279019
-0.000189751
-9.62561e-05
1.41603e-06
0.000103206
0.000209046
0.00031886
0.000432562
0.000550056
0.000671235
0.000795984
0.000924174
0.00105567
0.00119032
0.00132796
0.00146842
0.00161151
0.00175705
0.00190481
0.00205459
0.00220615
0.00235925
0.00251363
0.00266904
0.00282519
0.00298181
0.0031386
0.00329527
0.0034515
0.00360699
0.0037614
0.00391442
0.00406572
0.00421496
0.00436181
0.00450594
0.00464701
0.0047847
0.00491867
0.00504861
0.0051742
0.00529513
0.0054111
0.00552183
0.00562703
0.00572645
0.00581984
0.00590697
0.00598763
0.00606161
0.00612876
0.00618891
0.00624193
0.00628773
0.00632621
0.00635733
0.00638105
0.00639736
0.00640629
0.00640789
0.00640223
0.00638943
0.00636961
0.00634293
0.00630958
0.00626978
0.00622376
0.00617178
0.00611414
0.00605115
0.00598314
0.00591047
0.00583352
0.00575268
0.00566836
0.00558099
0.00549102
0.00539889
0.00530508
0.00521005
0.00511429
0.00501829
0.00492254
0.00482753
0.00473374
0.00464168
0.00455183
0.00446466
0.00438066
0.00430027
0.00422396
0.00415217
0.00408532
0.00402383
0.0039681
0.00391853
0.0038755
0.00383938
0.00381055
0.0037893
0.00377595
0.00377197
0.00377823
0.000849692
0.000783139
0.000721641
0.000661301
0.000598177
0.000532785
0.000465678
0.000397114
0.000327367
0.000256743
0.000185554
0.000114109
4.27151e-05
-2.83262e-05
-9.87237e-05
-0.000168197
-0.000236477
-0.000303311
-0.000368458
-0.000431695
-0.000492813
-0.000551618
-0.00060793
-0.000661586
-0.000712435
-0.000760338
-0.000805169
-0.000846815
-0.00088517
-0.000920141
-0.000951642
-0.000979594
-0.00100393
-0.00102457
-0.00104148
-0.00105458
-0.00106383
-0.0010692
-0.00107062
-0.00106806
-0.00106149
-0.00105087
-0.00103617
-0.00101736
-0.000994408
-0.000967291
-0.000935985
-0.000900469
-0.000860724
-0.000816736
-0.00076849
-0.000715978
-0.000659194
-0.000598136
-0.000532806
-0.000463212
-0.000389367
-0.000311289
-0.000229002
-0.000142537
-5.19328e-05
4.27657e-05
0.000141505
0.000244222
0.000350847
0.000461299
0.000575488
0.000693315
0.000814669
0.000939429
0.00106746
0.00119863
0.00133276
0.00146971
0.00160929
0.00175131
0.00189556
0.00204184
0.00218993
0.00233957
0.00249054
0.00264256
0.00279538
0.00294871
0.00310226
0.00325575
0.00340887
0.00356131
0.00371276
0.00386288
0.00401137
0.00415788
0.0043021
0.00444368
0.00458231
0.00471764
0.00484936
0.00497716
0.0051007
0.00521969
0.00533383
0.00544284
0.00554643
0.00564435
0.00573635
0.0058222
0.00590169
0.00597462
0.00604082
0.00610013
0.00615243
0.0061976
0.00623557
0.00626627
0.00628968
0.00630579
0.00631461
0.00631619
0.00631062
0.00629799
0.00627842
0.00625209
0.00621917
0.00617986
0.00613441
0.00608307
0.00602614
0.0059639
0.0058967
0.00582488
0.00574881
0.00566888
0.00558549
0.00549906
0.00541002
0.00531882
0.00522591
0.00513175
0.0050368
0.00494155
0.00484646
0.00475202
0.00465869
0.00456695
0.00447727
0.00439011
0.00430592
0.00422514
0.00414821
0.00407555
0.00400756
0.00394465
0.0038872
0.00383557
0.00379013
0.00375123
0.00371922
0.00369437
0.00367701
0.00366805
0.00366793
0.000970987
0.000893436
0.000823327
0.000756016
0.000686711
0.000615917
0.000544184
0.000471708
0.000398702
0.000325414
0.000252102
0.000179024
0.000106435
3.4587e-05
-3.62737e-05
-0.000105911
-0.000174097
-0.000240618
-0.00030527
-0.000367862
-0.000428218
-0.000486172
-0.000541571
-0.000594277
-0.000644159
-0.0006911
-0.000734993
-0.000775739
-0.00081325
-0.000847444
-0.000878247
-0.000905591
-0.000929414
-0.000949659
-0.000966274
-0.000979209
-0.000988421
-0.000993866
-0.000995504
-0.000993299
-0.000987215
-0.000977218
-0.000963276
-0.000945361
-0.000923442
-0.000897493
-0.00086749
-0.000833409
-0.00079523
-0.000752933
-0.000706504
-0.000655929
-0.000601199
-0.000542309
-0.000479257
-0.000412045
-0.000340683
-0.000265183
-0.000185565
-0.000101855
-1.40856e-05
7.77034e-05
0.000173464
0.000273139
0.000376665
0.000483966
0.00059496
0.000709552
0.000827637
0.000949102
0.00107382
0.00120165
0.00133245
0.00146606
0.0016023
0.00174099
0.00188194
0.00202494
0.00216976
0.00231619
0.00246397
0.00261285
0.00276258
0.00291288
0.00306346
0.00321404
0.00336432
0.003514
0.00366275
0.00381027
0.00395623
0.00410031
0.00424217
0.0043815
0.00451796
0.00465123
0.00478099
0.00490691
0.00502868
0.005146
0.00525857
0.00536611
0.00546834
0.00556499
0.00565582
0.0057406
0.00581912
0.00589117
0.00595659
0.00601522
0.00606693
0.0061116
0.00614915
0.00617953
0.00620269
0.00621863
0.00622737
0.00622895
0.00622344
0.00621094
0.00619158
0.0061655
0.0061329
0.00609397
0.00604895
0.00599808
0.00594166
0.00587997
0.00581335
0.00574213
0.00566667
0.00558737
0.00550461
0.0054188
0.00533036
0.00523973
0.00514736
0.00505368
0.00495916
0.00486426
0.00476943
0.00467514
0.00458186
0.00449002
0.0044001
0.00431252
0.00422772
0.00414614
0.00406819
0.00399426
0.00392475
0.00386004
0.00380048
0.00374644
0.00369825
0.00365622
0.00362069
0.00359192
0.00357023
0.003556
0.00354919
0.00109381
0.00100525
0.000926451
0.000852034
0.000776371
0.000699963
0.000623365
0.000546715
0.00047017
0.000393927
0.000318192
0.000243174
0.00016908
9.61182e-05
2.44885e-05
-4.56137e-05
-0.000114001
-0.000180497
-0.000244932
-0.000307149
-0.000367002
-0.000424353
-0.000479077
-0.000531058
-0.000580189
-0.000626373
-0.00066952
-0.00070955
-0.000746389
-0.000779969
-0.000810227
-0.000837106
-0.000860555
-0.000880525
-0.00089697
-0.000909847
-0.000919117
-0.000924742
-0.000926686
-0.000924913
-0.00091939
-0.000910086
-0.000896968
-0.000880007
-0.000859173
-0.00083444
-0.00080578
-0.000773169
-0.000736584
-0.000696002
-0.000651406
-0.00060278
-0.000550109
-0.000493385
-0.000432602
-0.000367758
-0.000298857
-0.000225906
-0.000148921
-6.79214e-05
1.70653e-05
0.000106005
0.000198855
0.000295565
0.000396076
0.000500321
0.000608221
0.000719689
0.000834627
0.000952926
0.00107447
0.00119912
0.00132674
0.00145717
0.00159026
0.00172581
0.00186364
0.00200356
0.00214534
0.00228875
0.00243358
0.00257956
0.00272644
0.00287396
0.00302182
0.00316976
0.00331746
0.00346464
0.00361098
0.00375617
0.00389988
0.0040418
0.0041816
0.00431896
0.00445354
0.00458502
0.00471308
0.0048374
0.00495767
0.00507359
0.00518485
0.00529116
0.00539226
0.00548788
0.00557776
0.00566169
0.00573943
0.0058108
0.00587561
0.00593371
0.00598497
0.00602926
0.00606651
0.00609665
0.00611965