/*--------------------------------*- C++ -*----------------------------------*\
| =========                 |                                                 |
| \\      /  F ield         | OpenFOAM: The Open Source CFD Toolbox           |
|  \\    /   O peration     | Version:  2.1.1                                 |
|   \\  /    A nd           | Web:      www.OpenFOAM.org                      |
|    \\/     M anipulation  |                                                 |
\*---------------------------------------------------------------------------*/
FoamFile
{
    version     2.0;
    format      ascii;
    class       surfaceScalarField;
    location    "0.8";
    object      phi;
}
// * * * * * * * * * * * * * * * * * * * * * * * * * * * * * * * * * * * * * //

dimensions      [0 3 -1 0 0 0 0];

internalField   nonuniform List<scalar> 
51520
(
2.05075e-12
-2.04412e-12
1.06666e-11
-8.61586e-12
2.29933e-11
-1.23267e-11
3.61667e-11
-1.31733e-11
4.82011e-11
-1.20344e-11
5.77596e-11
-9.55848e-12
6.39581e-11
-6.19854e-12
6.6233e-11
-2.27484e-12
6.42439e-11
1.98904e-12
5.78071e-11
6.43685e-12
4.68499e-11
1.09572e-11
3.13802e-11
1.54697e-11
1.1464e-11
1.99162e-11
-1.279e-11
2.4254e-11
-4.12425e-11
2.84524e-11
-7.37317e-11
3.24893e-11
-1.10081e-10
3.63491e-11
-1.50103e-10
4.00217e-11
-1.93603e-10
4.35007e-11
-2.40386e-10
4.67828e-11
-2.90253e-10
4.98674e-11
-3.43009e-10
5.27555e-11
-3.98458e-10
5.54496e-11
-4.56412e-10
5.79533e-11
-5.16683e-10
6.02713e-11
-5.79092e-10
6.24085e-11
-6.43462e-10
6.43705e-11
-7.09625e-10
6.61631e-11
-7.77417e-10
6.77922e-11
-8.46681e-10
6.92636e-11
-9.17264e-10
7.05834e-11
-9.89021e-10
7.17571e-11
-1.06181e-09
7.27904e-11
-1.1355e-09
7.36885e-11
-1.20996e-09
7.44564e-11
-1.28506e-09
7.50989e-11
-1.36068e-09
7.56201e-11
-1.4367e-09
7.60243e-11
-1.51302e-09
7.63149e-11
-1.58951e-09
7.64954e-11
-1.66608e-09
7.65685e-11
-1.74262e-09
7.65369e-11
-1.81902e-09
7.64028e-11
-1.89519e-09
7.61681e-11
-1.97102e-09
7.58343e-11
-2.04642e-09
7.54027e-11
-2.1213e-09
7.48743e-11
-2.19555e-09
7.42498e-11
-2.26908e-09
7.35297e-11
-2.34179e-09
7.27143e-11
-2.4136e-09
7.18037e-11
-2.48439e-09
7.07977e-11
-2.55409e-09
6.96963e-11
-2.62259e-09
6.8499e-11
-2.68979e-09
6.72056e-11
-2.75561e-09
6.58155e-11
-2.81994e-09
6.43284e-11
-2.88268e-09
6.27439e-11
-2.94374e-09
6.10615e-11
-3.00302e-09
5.92809e-11
-3.06043e-09
5.74018e-11
-3.11585e-09
5.54242e-11
-3.1692e-09
5.33482e-11
-3.22037e-09
5.11738e-11
-3.26927e-09
4.89016e-11
-3.31581e-09
4.65321e-11
-3.35987e-09
4.40661e-11
-3.40138e-09
4.15049e-11
-3.44023e-09
3.88499e-11
-3.47633e-09
3.61026e-11
-3.50959e-09
3.32651e-11
-3.53993e-09
3.03399e-11
-3.56726e-09
2.73295e-11
-3.5915e-09
2.4237e-11
-3.61257e-09
2.10659e-11
-3.63039e-09
1.78198e-11
-3.64489e-09
1.45031e-11
-3.65601e-09
1.11202e-11
-3.66369e-09
7.67609e-12
-3.66786e-09
4.17608e-12
-3.66849e-09
6.25887e-13
-3.66552e-09
-2.96839e-12
-3.65892e-09
-6.60028e-12
-3.64866e-09
-1.0263e-11
-3.63471e-09
-1.39492e-11
-3.61706e-09
-1.76516e-11
-3.59569e-09
-2.13621e-11
-3.57062e-09
-2.50727e-11
-3.54185e-09
-2.87748e-11
-3.50939e-09
-3.24599e-11
-3.47327e-09
-3.61189e-11
-3.43352e-09
-3.97426e-11
-3.3902e-09
-4.33217e-11
-3.34336e-09
-4.68467e-11
-3.29305e-09
-5.03081e-11
-3.23935e-09
-5.3696e-11
-3.18235e-09
-5.70007e-11
-3.12214e-09
-6.02125e-11
-3.05882e-09
-6.33217e-11
-2.9925e-09
-6.63186e-11
-2.9233e-09
-6.91937e-11
-2.85137e-09
-7.19376e-11
-2.77683e-09
-7.45411e-11
-2.69983e-09
-7.69952e-11
-2.62054e-09
-7.92914e-11
-2.53912e-09
-8.14212e-11
-2.45574e-09
-8.33768e-11
-2.37059e-09
-8.51506e-11
-2.28386e-09
-8.67354e-11
-2.19573e-09
-8.81248e-11
-2.10642e-09
-8.93125e-11
-2.01613e-09
-9.02931e-11
-1.92506e-09
-9.10617e-11
-1.83345e-09
-9.16139e-11
-1.7415e-09
-9.19462e-11
-1.64945e-09
-9.20556e-11
-1.55751e-09
-9.19398e-11
-1.46591e-09
-9.15973e-11
-1.37488e-09
-9.10273e-11
-1.28465e-09
-9.02298e-11
-1.19545e-09
-8.92056e-11
-1.10749e-09
-8.79561e-11
-1.02101e-09
-8.64837e-11
-9.36217e-10
-8.47914e-11
-8.53334e-10
-8.28831e-11
-7.72571e-10
-8.07635e-11
-6.94133e-10
-7.84379e-11
-6.1822e-10
-7.59126e-11
-5.45026e-10
-7.31946e-11
-4.74734e-10
-7.02915e-11
-4.07522e-10
-6.7212e-11
-3.43557e-10
-6.39652e-11
-2.82996e-10
-6.05611e-11
-2.25985e-10
-5.70106e-11
-1.7266e-10
-5.33253e-11
-1.23142e-10
-4.95175e-11
-7.75416e-11
-4.56006e-11
-3.59529e-11
-4.15887e-11
1.544e-12
-3.74969e-11
3.48858e-11
-3.33418e-11
6.40262e-11
-2.91404e-11
8.89383e-11
-2.4912e-11
1.09615e-10
-2.06771e-11
1.26074e-10
-1.64583e-11
1.38354e-10
-1.22806e-11
1.46526e-10
-8.17179e-12
1.5069e-10
-4.16354e-12
1.50982e-10
-2.9203e-13
1.47581e-10
3.40104e-12
1.40715e-10
6.86606e-12
1.30671e-10
1.0044e-11
1.17808e-10
1.2863e-11
1.02574e-10
1.5234e-11
8.55282e-11
1.70453e-11
6.73743e-11
1.81539e-11
4.8998e-11
1.83763e-11
3.15169e-11
1.74811e-11
1.6318e-11
1.51989e-11
5.06904e-12
1.12489e-11
-4.47743e-13
5.51678e-12
-4.47743e-13
8.62207e-12
-1.06662e-11
2.82103e-11
-2.82041e-11
5.33074e-11
-3.74239e-11
7.90097e-11
-3.88756e-11
1.01316e-10
-3.43407e-11
1.1719e-10
-2.54323e-11
1.24427e-10
-1.34361e-11
1.21492e-10
6.60689e-13
1.07365e-10
1.61162e-11
8.14224e-11
3.23791e-11
4.33429e-11
4.90366e-11
-6.96713e-12
6.57798e-11
-6.94277e-11
8.23768e-11
-1.43828e-10
9.86541e-11
-2.29857e-10
1.14482e-10
-3.27132e-10
1.29764e-10
-4.35213e-10
1.44431e-10
-5.53626e-10
1.58434e-10
-6.81865e-10
1.7174e-10
-8.19412e-10
1.8433e-10
-9.65738e-10
1.96193e-10
-1.12031e-09
2.07328e-10
-1.2826e-09
2.17739e-10
-1.45208e-09
2.27436e-10
-1.62824e-09
2.36431e-10
-1.81058e-09
2.4474e-10
-1.99859e-09
2.52382e-10
-2.1918e-09
2.59375e-10
-2.38975e-09
2.6574e-10
-2.59198e-09
2.71497e-10
-2.79806e-09
2.76667e-10
-3.00758e-09
2.81271e-10
-3.22011e-09
2.85327e-10
-3.43528e-09
2.88856e-10
-3.6527e-09
2.91874e-10
-3.872e-09
2.94401e-10
-4.09283e-09
2.9645e-10
-4.31484e-09
2.98038e-10
-4.53771e-09
2.99177e-10
-4.76109e-09
2.9988e-10
-4.98468e-09
3.00159e-10
-5.20817e-09
3.00021e-10
-5.43124e-09
2.99477e-10
-5.65361e-09
2.98534e-10
-5.87497e-09
2.97197e-10
-6.09504e-09
2.95471e-10
-6.31352e-09
2.93361e-10
-6.53014e-09
2.90869e-10
-6.74461e-09
2.87998e-10
-6.95665e-09
2.8475e-10
-7.16597e-09
2.81124e-10
-7.37229e-09
2.77121e-10
-7.57533e-09
2.72741e-10
-7.77482e-09
2.67982e-10
-7.97046e-09
2.62845e-10
-8.16197e-09
2.57328e-10
-8.34907e-09
2.5143e-10
-8.53148e-09
2.4515e-10
-8.7089e-09
2.38486e-10
-8.88106e-09
2.31439e-10
-9.04767e-09
2.24008e-10
-9.20844e-09
2.16192e-10
-9.36308e-09
2.07994e-10
-9.51132e-09
1.99414e-10
-9.65287e-09
1.90454e-10
-9.78746e-09
1.81117e-10
-9.9148e-09
1.71408e-10
-1.00346e-08
1.61332e-10
-1.01467e-08
1.50893e-10
-1.02507e-08
1.401e-10
-1.03464e-08
1.28961e-10
-1.04335e-08
1.17485e-10
-1.05119e-08
1.05683e-10
-1.05812e-08
9.35682e-11
-1.06413e-08
8.11533e-11
-1.06919e-08
6.84535e-11
-1.07329e-08
5.54856e-11
-1.0764e-08
4.22673e-11
-1.07852e-08
2.88182e-11
-1.07962e-08
1.51591e-11
-1.07969e-08
1.31231e-12
-1.07871e-08
-1.26983e-11
-1.07669e-08
-2.68476e-11
-1.0736e-08
-4.11091e-11
-1.06945e-08
-5.54547e-11
-1.06423e-08
-6.98555e-11
-1.05794e-08
-8.42811e-11
-1.05058e-08
-9.86998e-11
-1.04215e-08
-1.13079e-10
-1.03265e-08
-1.27386e-10
-1.02211e-08
-1.41585e-10
-1.01052e-08
-1.55641e-10
-9.97899e-09
-1.69519e-10
-9.84265e-09
-1.83182e-10
-9.69637e-09
-1.96594e-10
-9.54034e-09
-2.09716e-10
-9.37483e-09
-2.22512e-10
-9.2001e-09
-2.34945e-10
-9.01644e-09
-2.46978e-10
-8.82419e-09
-2.58573e-10
-8.62369e-09
-2.69694e-10
-8.41532e-09
-2.80305e-10
-8.19949e-09
-2.90373e-10
-7.97663e-09
-2.99861e-10
-7.74718e-09
-3.08739e-10
-7.51163e-09
-3.16973e-10
-7.27047e-09
-3.24534e-10
-7.02423e-09
-3.31393e-10
-6.77344e-09
-3.37523e-10
-6.51867e-09
-3.42899e-10
-6.26048e-09
-3.47498e-10
-5.99947e-09
-3.51299e-10
-5.73625e-09
-3.54284e-10
-5.47143e-09
-3.56437e-10
-5.20563e-09
-3.57743e-10
-4.9395e-09
-3.58191e-10
-4.67366e-09
-3.57774e-10
-4.40877e-09
-3.56485e-10
-4.14548e-09
-3.54323e-10
-3.88442e-09
-3.51286e-10
-3.62625e-09
-3.47378e-10
-3.3716e-09
-3.42606e-10
-3.12111e-09
-3.36978e-10
-2.87539e-09
-3.30505e-10
-2.63507e-09
-3.23205e-10
-2.40074e-09
-3.15093e-10
-2.17299e-09
-3.06192e-10
-1.95237e-09
-2.96526e-10
-1.73944e-09
-2.86122e-10
-1.53473e-09
-2.7501e-10
-1.33871e-09
-2.63224e-10
-1.15188e-09
-2.50798e-10
-9.74668e-10
-2.37773e-10
-8.07487e-10
-2.24192e-10
-6.50714e-10
-2.10098e-10
-5.0469e-10
-1.95542e-10
-3.69715e-10
-1.80575e-10
-2.4605e-10
-1.65254e-10
-1.33909e-10
-1.49637e-10
-3.34607e-11
-1.3379e-10
5.51809e-11
-1.17782e-10
1.31956e-10
-1.01687e-10
1.96866e-10
-8.55874e-11
2.4998e-10
-6.95718e-11
2.91438e-10
-5.37389e-11
3.21465e-10
-3.81982e-11
3.40374e-10
-2.30728e-11
3.48585e-10
-8.50275e-12
3.46634e-10
5.35116e-12
3.35198e-10
1.83024e-11
3.15111e-10
3.01311e-11
2.87397e-10
4.05765e-11
2.53306e-10
4.93259e-11
2.14349e-10
5.60015e-11
1.72356e-10
6.01474e-11
1.29513e-10
6.1219e-11
8.84001e-11
5.85941e-11
5.19623e-11
5.16368e-11
2.33587e-11
3.98525e-11
5.50605e-12
2.33695e-11
5.0583e-12
1.23571e-11
-2.30233e-11
3.75012e-11
-5.33482e-11
6.76591e-11
-6.75818e-11
9.66573e-11
-6.78737e-11
1.19419e-10
-5.7103e-11
1.31933e-10
-3.7946e-11
1.31148e-10
-1.26506e-11
1.14832e-10
1.69767e-11
8.14285e-11
4.95194e-11
2.99276e-11
8.388e-11
-4.0246e-11
1.1921e-10
-1.29324e-10
1.54858e-10
-2.3727e-10
1.90323e-10
-3.63836e-10
2.2522e-10
-5.08611e-10
2.59257e-10
-6.7106e-10
2.92213e-10
-8.50553e-10
3.23924e-10
-1.04639e-09
3.54272e-10
-1.25782e-09
3.83174e-10
-1.48407e-09
4.10574e-10
-1.72432e-09
4.36443e-10
-1.97776e-09
4.60767e-10
-2.24356e-09
4.83547e-10
-2.52092e-09
5.04796e-10
-2.80903e-09
5.24537e-10
-3.10709e-09
5.42797e-10
-3.41432e-09
5.59612e-10
-3.72996e-09
5.75017e-10
-4.05327e-09
5.89053e-10
-4.38354e-09
6.01762e-10
-4.72005e-09
6.13184e-10
-5.06214e-09
6.23361e-10
-5.40915e-09
6.32335e-10
-5.76044e-09
6.40144e-10
-6.11539e-09
6.46826e-10
-6.47341e-09
6.52417e-10
-6.83391e-09
6.56951e-10
-7.19633e-09
6.60459e-10
-7.56012e-09
6.62969e-10
-7.92475e-09
6.64508e-10
-8.28969e-09
6.65099e-10
-8.65443e-09
6.64763e-10
-9.01847e-09
6.63518e-10
-9.38132e-09
6.61381e-10
-9.74248e-09
6.58364e-10
-1.01015e-08
6.54478e-10
-1.04579e-08
6.49734e-10
-1.08111e-08
6.44136e-10
-1.11608e-08
6.37692e-10
-1.15065e-08
6.30404e-10
-1.18476e-08
6.22275e-10
-1.21838e-08
6.13306e-10
-1.25146e-08
6.03496e-10
-1.28394e-08
5.92846e-10
-1.31579e-08
5.81353e-10
-1.34696e-08
5.69017e-10
-1.3774e-08
5.55835e-10
-1.40707e-08
5.41807e-10
-1.43591e-08
5.2693e-10
-1.46389e-08
5.11206e-10
-1.49095e-08
4.94634e-10
-1.51706e-08
4.77215e-10
-1.54215e-08
4.58952e-10
-1.56619e-08
4.3985e-10
-1.58914e-08
4.19914e-10
-1.61094e-08
3.99151e-10
-1.63156e-08
3.77572e-10
-1.65095e-08
3.55188e-10
-1.66906e-08
3.32012e-10
-1.68585e-08
3.08063e-10
-1.70129e-08
2.83358e-10
-1.71534e-08
2.5792e-10
-1.72795e-08
2.31773e-10
-1.73908e-08
2.04946e-10
-1.74872e-08
1.77468e-10
-1.75681e-08
1.49374e-10
-1.76333e-08
1.20701e-10
-1.76825e-08
9.14873e-11
-1.77155e-08
6.17775e-11
-1.77319e-08
3.16175e-11
-1.77317e-08
1.05653e-12
-1.77145e-08
-2.98528e-11
-1.76803e-08
-6.10552e-11
-1.76289e-08
-9.2492e-11
-1.75603e-08
-1.24102e-10
-1.74743e-08
-1.55822e-10
-1.7371e-08
-1.87584e-10
-1.72504e-08
-2.1932e-10
-1.71125e-08
-2.50958e-10
-1.69575e-08
-2.82426e-10
-1.67854e-08
-3.13647e-10
-1.65965e-08
-3.44546e-10
-1.6391e-08
-3.75044e-10
-1.61691e-08
-4.05061e-10
-1.59312e-08
-4.34517e-10
-1.56776e-08
-4.63333e-10
-1.54087e-08
-4.91425e-10
-1.51249e-08
-5.18715e-10
-1.48267e-08
-5.4512e-10
-1.45147e-08
-5.70561e-10
-1.41895e-08
-5.9496e-10
-1.38516e-08
-6.18237e-10
-1.35016e-08
-6.40319e-10
-1.31403e-08
-6.61131e-10
-1.27685e-08
-6.80602e-10
-1.23868e-08
-6.98663e-10
-1.19961e-08
-7.15249e-10
-1.15972e-08
-7.30298e-10
-1.11909e-08
-7.43752e-10
-1.07783e-08
-7.55556e-10
-1.03601e-08
-7.65662e-10
-9.93739e-09
-7.74023e-10
-9.51107e-09
-7.806e-10
-9.08215e-09
-7.85359e-10
-8.65162e-09
-7.88269e-10
-8.22051e-09
-7.89307e-10
-7.78983e-09
-7.88455e-10
-7.36061e-09
-7.85702e-10
-6.93389e-09
-7.81041e-10
-6.5107e-09
-7.74473e-10
-6.09208e-09
-7.66006e-10
-5.67903e-09
-7.55652e-10
-5.27258e-09
-7.43432e-10
-4.87371e-09
-7.29373e-10
-4.4834e-09
-7.13508e-10
-4.10262e-09
-6.95877e-10
-3.73229e-09
-6.76526e-10
-3.37331e-09
-6.55509e-10
-3.02654e-09
-6.32885e-10
-2.69283e-09
-6.08722e-10
-2.37296e-09
-5.83092e-10
-2.06768e-09
-5.56075e-10
-1.7777e-09
-5.27758e-10
-1.50366e-09
-4.98235e-10
-1.24615e-09
-4.67605e-10
-1.00572e-09
-4.35977e-10
-7.82824e-10
-4.03466e-10
-5.77881e-10
-3.70198e-10
-3.91215e-10
-3.36303e-10
-2.2308e-10
-3.01925e-10
-7.36435e-11
-2.67219e-10
5.70177e-11
-2.32348e-10
1.68926e-10
-1.97495e-10
2.62211e-10
-1.62857e-10
3.37121e-10
-1.28649e-10
3.94036e-10
-9.51132e-11
4.33481e-10
-6.25175e-11
4.56143e-10
-3.11651e-11
4.62895e-10
-1.40121e-12
4.54818e-10
2.63794e-11
4.33232e-10
5.17173e-11
3.9973e-10
7.40788e-11
3.56217e-10
9.28385e-11
3.04955e-10
1.07264e-10
2.48599e-10
1.16503e-10
1.90231e-10
1.19587e-10
1.33357e-10
1.15468e-10
8.18499e-11
1.03144e-10
3.97956e-11
8.19067e-11
1.12147e-11
5.19503e-11
1.62731e-11
1.32522e-11
-3.62755e-11
3.90854e-11
-7.91813e-11
6.81719e-11
-9.66683e-11
9.34172e-11
-9.3119e-11
1.09091e-10
-7.27765e-11
1.10617e-10
-3.94724e-11
9.44387e-11
3.52776e-12
5.78782e-11
5.35372e-11
-9.92903e-13
1.0839e-10
-8.34741e-11
1.66361e-10
-1.90349e-10
2.26085e-10
-3.21979e-10
2.86488e-10
-4.78383e-10
3.46727e-10
-6.59308e-10
4.06145e-10
-8.64283e-10
4.64233e-10
-1.09267e-09
5.206e-10
-1.3437e-09
5.7495e-10
-1.61649e-09
6.27065e-10
-1.9101e-09
6.76786e-10
-2.22353e-09
7.24005e-10
-2.55575e-09
7.68656e-10
-2.90568e-09
8.10703e-10
-3.27227e-09
8.50137e-10
-3.65445e-09
8.8697e-10
-4.05114e-09
9.2123e-10
-4.4613e-09
9.52957e-10
-4.88389e-09
9.82202e-10
-5.3179e-09
1.00902e-09
-5.76232e-09
1.03348e-09
-6.21621e-09
1.05564e-09
-6.6786e-09
1.07558e-09
-7.14859e-09
1.09335e-09
-7.62528e-09
1.10902e-09
-8.1078e-09
1.12267e-09
-8.59531e-09
1.13434e-09
-9.087e-09
1.14411e-09
-9.58207e-09
1.15202e-09
-1.00797e-08
1.15813e-09
-1.05793e-08
1.16249e-09
-1.10799e-08
1.16514e-09
-1.15809e-08
1.16612e-09
-1.20816e-08
1.16546e-09
-1.25813e-08
1.1632e-09
-1.30793e-08
1.15937e-09
-1.35749e-08
1.15399e-09
-1.40675e-08
1.14707e-09
-1.45564e-08
1.13864e-09
-1.5041e-08
1.1287e-09
-1.55205e-08
1.11726e-09
-1.59945e-08
1.10434e-09
-1.64621e-08
1.08994e-09
-1.69229e-08
1.07406e-09
-1.73761e-08
1.05669e-09
-1.78211e-08
1.03785e-09
-1.82573e-08
1.01753e-09
-1.8684e-08
9.95728e-10
-1.91006e-08
9.72443e-10
-1.95064e-08
9.47675e-10
-1.99009e-08
9.21422e-10
-2.02834e-08
8.93687e-10
-2.06533e-08
8.6447e-10
-2.10098e-08
8.33776e-10
-2.13525e-08
8.01611e-10
-2.16806e-08
7.67984e-10
-2.19936e-08
7.32906e-10
-2.22908e-08
6.96393e-10
-2.25717e-08
6.58461e-10
-2.28357e-08
6.19134e-10
-2.30821e-08
5.78436e-10
-2.33104e-08
5.36399e-10
-2.35201e-08
4.93057e-10
-2.37107e-08
4.48449e-10
-2.38815e-08
4.0262e-10
-2.40322e-08
3.55619e-10
-2.41622e-08
3.075e-10
-2.42712e-08
2.58323e-10
-2.43586e-08
2.08153e-10
-2.44242e-08
1.57059e-10
-2.44675e-08
1.05119e-10
-2.44883e-08
5.24128e-11
-2.44863e-08
-9.73416e-13
-2.44612e-08
-5.49478e-11
-2.44128e-08
-1.09414e-10
-2.43411e-08
-1.64269e-10
-2.42458e-08
-2.19408e-10
-2.41269e-08
-2.74719e-10
-2.39844e-08
-3.30087e-10
-2.38183e-08
-3.85391e-10
-2.36287e-08
-4.40509e-10
-2.34159e-08
-4.95314e-10
-2.31798e-08
-5.49675e-10
-2.29209e-08
-6.0346e-10
-2.26394e-08
-6.56534e-10
-2.23357e-08
-7.0876e-10
-2.20102e-08
-7.59998e-10
-2.16635e-08
-8.10112e-10
-2.12959e-08
-8.58959e-10
-2.09082e-08
-9.06402e-10
-2.05011e-08
-9.52301e-10
-2.00751e-08
-9.96519e-10
-1.96311e-08
-1.03892e-09
-1.917e-08
-1.07937e-09
-1.86926e-08
-1.11774e-09
-1.81998e-08
-1.1539e-09
-1.76927e-08
-1.18774e-09
-1.71722e-08
-1.21913e-09
-1.66395e-08
-1.24796e-09
-1.60957e-08
-1.27412e-09
-1.55419e-08
-1.29752e-09
-1.49794e-08
-1.31806e-09
-1.44094e-08
-1.33566e-09
-1.38332e-08
-1.35023e-09
-1.32521e-08
-1.36172e-09
-1.26674e-08
-1.37007e-09
-1.20804e-08
-1.37521e-09
-1.14926e-08
-1.37712e-09
-1.09053e-08
-1.37576e-09
-1.03199e-08
-1.37111e-09
-9.73781e-09
-1.36316e-09
-9.16037e-09
-1.35191e-09
-8.58899e-09
-1.33739e-09
-8.02504e-09
-1.3196e-09
-7.46989e-09
-1.29859e-09
-6.92486e-09
-1.2744e-09
-6.39127e-09
-1.24709e-09
-5.87041e-09
-1.21674e-09
-5.36353e-09
-1.18341e-09
-4.87182e-09
-1.14721e-09
-4.39647e-09
-1.10824e-09
-3.93857e-09
-1.06662e-09
-3.4992e-09
-1.02246e-09
-3.07936e-09
-9.7592e-10
-2.67998e-09
-9.27141e-10
-2.30192e-09
-8.76289e-10
-1.94599e-09
-8.2354e-10
-1.61288e-09
-7.69082e-10
-1.30323e-09
-7.13117e-10
-1.01757e-09
-6.55863e-10
-7.56318e-10
-5.97552e-10
-5.1981e-10
-5.38433e-10
-3.08253e-10
-4.78776e-10
-1.21731e-10
-4.1887e-10
3.9803e-11
-3.59029e-10
1.76544e-10
-2.99597e-10
2.88843e-10
-2.40949e-10
3.77229e-10
-1.83499e-10
4.4242e-10
-1.27708e-10
4.85347e-10
-7.40919e-11
5.07177e-10
-2.32311e-11
5.09341e-10
2.42147e-11
4.93566e-10
6.74925e-11
4.61906e-10
1.05739e-10
4.1678e-10
1.37964e-10
3.6101e-10
1.63034e-10
2.97845e-10
1.79668e-10
2.30984e-10
1.86448e-10
1.64564e-10
1.81889e-10
1.03129e-10
1.64578e-10
5.15759e-11
1.3346e-10
1.51474e-11
8.83788e-11
3.14205e-11
1.21746e-11
-4.84501e-11
3.47047e-11
-1.01711e-10
5.76375e-11
-1.19601e-10
7.33743e-11
-1.08856e-10
7.58256e-11
-7.52278e-11
6.01178e-11
-2.37646e-11
2.24188e-11
4.12268e-11
-4.02041e-11
1.1616e-10
-1.29906e-10
1.98093e-10
-2.48178e-10
2.84633e-10
-3.95946e-10
3.73854e-10
-5.73668e-10
4.64209e-10
-7.8141e-10
5.54469e-10
-1.01892e-09
6.43656e-10
-1.28569e-09
7.31004e-10
-1.58101e-09
8.15913e-10
-1.90398e-09
8.97924e-10
-2.2536e-09
9.7669e-10
-2.62877e-09
1.05195e-09
-3.02831e-09
1.12354e-09
-3.45097e-09
1.19132e-09
-3.8955e-09
1.25524e-09
-4.36062e-09
1.31525e-09
-4.84503e-09
1.37138e-09
-5.34743e-09
1.42364e-09
-5.86655e-09
1.47208e-09
-6.40113e-09
1.51678e-09
-6.94991e-09
1.5578e-09
-7.51167e-09
1.59524e-09
-8.08522e-09
1.62919e-09
-8.66939e-09
1.65974e-09
-9.26303e-09
1.68699e-09
-9.86504e-09
1.71103e-09
-1.04743e-08
1.73196e-09
-1.10898e-08
1.74986e-09
-1.17106e-08
1.76483e-09
-1.23355e-08
1.77694e-09
-1.29636e-08
1.78628e-09
-1.35941e-08
1.79291e-09
-1.42258e-08
1.7969e-09
-1.4858e-08
1.7983e-09
-1.54897e-08
1.79718e-09
-1.61201e-08
1.79357e-09
-1.67482e-08
1.78752e-09
-1.73733e-08
1.77907e-09
-1.79945e-08
1.76824e-09
-1.86109e-08
1.75505e-09
-1.92217e-08
1.73954e-09
-1.98262e-08
1.72171e-09
-2.04234e-08
1.70157e-09
-2.10126e-08
1.67914e-09
-2.1593e-08
1.65441e-09
-2.21637e-08
1.6274e-09
-2.27239e-08
1.5981e-09
-2.32729e-08
1.56652e-09
-2.38099e-08
1.53265e-09
-2.43339e-08
1.4965e-09
-2.48443e-08
1.45806e-09
-2.53402e-08
1.41734e-09
-2.58209e-08
1.37433e-09
-2.62854e-08
1.32905e-09
-2.67332e-08
1.2815e-09
-2.71632e-08
1.2317e-09
-2.75749e-08
1.17966e-09
-2.79674e-08
1.12539e-09
-2.83399e-08
1.06893e-09
-2.86918e-08
1.01031e-09
-2.90222e-08
9.49556e-10
-2.93305e-08
8.86714e-10
-2.96159e-08
8.21831e-10
-2.98778e-08
7.54964e-10
-3.01156e-08
6.86174e-10
-3.03285e-08
6.1553e-10
-3.0516e-08
5.4311e-10
-3.06775e-08
4.68999e-10
-3.08124e-08
3.93288e-10
-3.09204e-08
3.16078e-10
-3.10008e-08
2.37479e-10
-3.10533e-08
1.57607e-10
-3.10774e-08
7.65864e-11
-3.1073e-08
-5.44965e-12
-3.10395e-08
-8.83605e-11
-3.0977e-08
-1.71998e-10
-3.0885e-08
-2.56206e-10
-3.07636e-08
-3.40822e-10
-3.06127e-08
-4.25676e-10
-3.04321e-08
-5.10592e-10
-3.02222e-08
-5.95387e-10
-2.99828e-08
-6.79872e-10
-2.97142e-08
-7.63856e-10
-2.94168e-08
-8.47139e-10
-2.90907e-08
-9.2952e-10
-2.87365e-08
-1.01079e-09
-2.83545e-08
-1.09075e-09
-2.79453e-08
-1.16918e-09
-2.75095e-08
-1.24588e-09
-2.70479e-08
-1.32063e-09
-2.6561e-08
-1.39321e-09
-2.60499e-08
-1.46343e-09
-2.55154e-08
-1.53107e-09
-2.49584e-08
-1.59592e-09
-2.43799e-08
-1.65779e-09
-2.37812e-08
-1.71648e-09
-2.31633e-08
-1.77179e-09
-2.25275e-08
-1.82354e-09
-2.18751e-08
-1.87156e-09
-2.12074e-08
-1.91567e-09
-2.05258e-08
-1.95572e-09
-1.98317e-08
-1.99155e-09
-1.91268e-08
-2.02302e-09
-1.84124e-08
-2.05e-09
-1.76903e-08
-2.07239e-09
-1.69619e-08
-2.09007e-09
-1.6229e-08
-2.10296e-09
-1.54933e-08
-2.11098e-09
-1.47563e-08
-2.11407e-09
-1.40199e-08
-2.11218e-09
-1.32857e-08
-2.10529e-09
-1.25555e-08
-2.09338e-09
-1.18309e-08
-2.07646e-09
-1.11138e-08
-2.05454e-09
-1.04057e-08
-2.02767e-09
-9.70839e-09
-1.9959e-09
-9.02351e-09
-1.95929e-09
-8.35266e-09
-1.91794e-09
-7.69744e-09
-1.87196e-09
-7.05939e-09
-1.82146e-09
-6.44e-09
-1.7666e-09
-5.84072e-09
-1.70753e-09
-5.2629e-09
-1.64443e-09
-4.70787e-09
-1.57749e-09
-4.17686e-09
-1.50694e-09
-3.67101e-09
-1.43299e-09
-3.19139e-09
-1.3559e-09
-2.73898e-09
-1.27595e-09
-2.31464e-09
-1.19342e-09
-1.91914e-09
-1.10862e-09
-1.55311e-09
-1.02189e-09
-1.21708e-09
-9.33579e-10
-9.11441e-10
-8.44074e-10
-6.36432e-10
-7.53785e-10
-3.92145e-10
-6.63157e-10
-1.78505e-10
-5.7267e-10
4.74285e-12
-4.82845e-10
1.58045e-10
-3.94251e-10
2.82062e-10
-3.07515e-10
3.77681e-10
-2.23328e-10
4.46044e-10
-1.42455e-10
4.88569e-10
-6.57558e-11
5.06976e-10
5.80762e-12
5.03319e-10
7.11495e-11
4.80015e-10
1.29043e-10
4.39876e-10
1.78103e-10
3.86137e-10
2.16774e-10
3.22478e-10
2.43326e-10
2.53043e-10
2.55884e-10
1.82441e-10
2.52491e-10
1.15767e-10
2.31252e-10
5.86494e-11
1.90578e-10
1.74424e-11
1.29586e-10
4.88629e-11
9.75602e-12
-5.82061e-11
2.59159e-11
-1.17871e-10
3.8615e-11
-1.323e-10
4.01603e-11
-1.10401e-10
2.43663e-11
-5.94338e-11
-1.37341e-11
1.43359e-11
-7.80742e-11
1.05567e-10
-1.71694e-10
2.0978e-10
-2.96855e-10
3.23254e-10
-4.55144e-10
4.42923e-10
-6.47567e-10
5.66277e-10
-8.74634e-10
6.91276e-10
-1.13643e-09
8.1627e-10
-1.43271e-09
9.39934e-10
-1.76292e-09
1.06121e-09
-2.12628e-09
1.17927e-09
-2.52181e-09
1.29346e-09
-2.9484e-09
1.40328e-09
-3.4048e-09
1.50836e-09
-3.88969e-09
1.60842e-09
-4.40166e-09
1.70329e-09
-4.93928e-09
1.79285e-09
-5.50106e-09
1.87704e-09
-6.08553e-09
1.95585e-09
-6.6912e-09
2.0293e-09
-7.31657e-09
2.09745e-09
-7.96018e-09
2.16038e-09
-8.62057e-09
2.21819e-09
-9.2963e-09
2.27098e-09
-9.98598e-09
2.31887e-09
-1.06882e-08
2.36199e-09
-1.14017e-08
2.40045e-09
-1.21251e-08
2.4344e-09
-1.2857e-08
2.46395e-09
-1.35964e-08
2.48922e-09
-1.43419e-08
2.51033e-09
-1.50923e-08
2.52739e-09
-1.58466e-08
2.5405e-09
-1.66034e-08
2.54977e-09
-1.73618e-08
2.55527e-09
-1.81206e-08
2.5571e-09
-1.88787e-08
2.55531e-09
-1.96351e-08
2.54999e-09
-2.03888e-08
2.54118e-09
-2.11387e-08
2.52894e-09
-2.18837e-08
2.5133e-09
-2.2623e-08
2.4943e-09
-2.33554e-08
2.47198e-09
-2.40801e-08
2.44634e-09
-2.47959e-08
2.41742e-09
-2.5502e-08
2.38522e-09
-2.61973e-08
2.34975e-09
-2.6881e-08
2.31102e-09
-2.75519e-08
2.26904e-09
-2.82092e-08
2.2238e-09
-2.88518e-08
2.17532e-09
-2.94789e-08
2.12358e-09
-3.00895e-08
2.0686e-09
-3.06825e-08
2.01038e-09
-3.12571e-08
1.94892e-09
-3.18123e-08
1.88424e-09
-3.23471e-08
1.81635e-09
-3.28607e-08
1.74528e-09
-3.33521e-08
1.67104e-09
-3.38204e-08
1.59366e-09
-3.42646e-08
1.51319e-09
-3.4684e-08
1.42967e-09
-3.50776e-08
1.34315e-09
-3.54446e-08
1.2537e-09
-3.57841e-08
1.16138e-09
-3.60954e-08
1.06628e-09
-3.63777e-08
9.6848e-10
-3.66303e-08
8.68086e-10
-3.68524e-08
7.65208e-10
-3.70434e-08
6.59968e-10
-3.72026e-08
5.52497e-10
-3.73294e-08
4.4294e-10
-3.74234e-08
3.31452e-10
-3.7484e-08
2.18197e-10
-3.75108e-08
1.03355e-10
-3.75033e-08
-1.28882e-11
-3.74614e-08
-1.30332e-10
-3.73846e-08
-2.48768e-10
-3.72728e-08
-3.67976e-10
-3.71259e-08
-4.87725e-10
-3.69438e-08
-6.07776e-10
-3.67265e-08
-7.27882e-10
-3.64741e-08
-8.47785e-10
-3.61868e-08
-9.67221e-10
-3.58647e-08
-1.08592e-09
-3.55083e-08
-1.2036e-09
-3.51178e-08
-1.31998e-09
-3.46938e-08
-1.43477e-09
-3.42369e-08
-1.54769e-09
-3.37476e-08
-1.65843e-09
-3.32268e-08
-1.7667e-09
-3.26752e-08
-1.87221e-09
-3.20938e-08
-1.97466e-09
-3.14835e-08
-2.07375e-09
-3.08453e-08
-2.16919e-09
-3.01806e-08
-2.26071e-09
-2.94903e-08
-2.34801e-09
-2.8776e-08
-2.43082e-09
-2.80389e-08
-2.50887e-09
-2.72805e-08
-2.58191e-09
-2.65024e-08
-2.64969e-09
-2.57061e-08
-2.71197e-09
-2.48933e-08
-2.76853e-09
-2.40657e-08
-2.81916e-09
-2.3225e-08
-2.86366e-09
-2.23732e-08
-2.90186e-09
-2.1512e-08
-2.93359e-09
-2.06433e-08
-2.95872e-09
-1.97692e-08
-2.9771e-09
-1.88915e-08
-2.98865e-09
-1.80123e-08
-2.99328e-09
-1.71335e-08
-2.99093e-09
-1.62573e-08
-2.98154e-09
-1.53856e-08
-2.96512e-09
-1.45204e-08
-2.94166e-09
-1.36637e-08
-2.91119e-09
-1.28176e-08
-2.87377e-09
-1.1984e-08
-2.82947e-09
-1.11649e-08
-2.77839e-09
-1.03622e-08
-2.72066e-09
-9.57775e-09
-2.65643e-09
-8.81333e-09
-2.58588e-09
-8.07073e-09
-2.5092e-09
-7.35163e-09
-2.42663e-09
-6.65765e-09
-2.33841e-09
-5.99031e-09
-2.24483e-09
-5.35108e-09
-2.14617e-09
-4.74129e-09
-2.04278e-09
-4.1622e-09
-1.935e-09
-3.61494e-09
-1.82321e-09
-3.10053e-09
-1.70784e-09
-2.61985e-09
-1.5893e-09
-2.17365e-09
-1.46809e-09
-1.76253e-09
-1.34469e-09
-1.38695e-09
-1.21966e-09
-1.04717e-09
-1.09356e-09
-7.43288e-10
-9.67035e-10
-4.75214e-10
-8.40744e-10
-2.42639e-10
-7.1542e-10
-4.50322e-11
-5.91858e-10
1.18376e-10
-4.70924e-10
2.48619e-10
-3.5357e-10
3.47011e-10
-2.40848e-10
4.15174e-10
-1.33919e-10
4.55061e-10
-3.40794e-11
4.68983e-10
5.72277e-11
4.59635e-10
1.38391e-10
4.30124e-10
2.07614e-10
3.83992e-10
2.62906e-10
3.25237e-10
3.02081e-10
2.58338e-10
3.22783e-10
1.88279e-10
3.22549e-10
1.20614e-10
2.98917e-10
6.15844e-11
2.49607e-10
1.84027e-11
1.72768e-10
6.72656e-11
6.43108e-12
-6.46372e-11
1.39411e-11
-1.25381e-10
1.32211e-11
-1.3158e-10
-3.17867e-12
-9.40014e-11
-4.1308e-11
-2.13044e-11
-1.06054e-10
7.90821e-11
-2.01309e-10
2.00822e-10
-3.30099e-10
3.38569e-10
-4.9469e-10
4.87845e-10
-6.96685e-10
6.44917e-10
-9.37101e-10
8.06693e-10
-1.21645e-09
9.7063e-10
-1.53483e-09
1.13465e-09
-1.89195e-09
1.29705e-09
-2.28722e-09
1.45648e-09
-2.71979e-09
1.61185e-09
-3.18862e-09
1.76229e-09
-3.69248e-09
1.90714e-09
-4.23002e-09
2.04589e-09
-4.79977e-09
2.17817e-09
-5.40019e-09
2.30372e-09
-6.02969e-09
2.42235e-09
-6.68664e-09
2.53398e-09
-7.36936e-09
2.63857e-09
-8.07619e-09
2.73614e-09
-8.80547e-09
2.82673e-09
-9.55554e-09
2.91045e-09
-1.03247e-08
2.9874e-09
-1.11115e-08
3.0577e-09
-1.19141e-08
3.12152e-09
-1.27311e-08
3.17899e-09
-1.35609e-08
3.23028e-09
-1.44021e-08
3.27553e-09
-1.5253e-08
3.31492e-09
-1.61124e-08
3.34859e-09
-1.69788e-08
3.37669e-09
-1.78508e-08
3.39936e-09
-1.8727e-08
3.41673e-09
-1.96062e-08
3.42893e-09
-2.0487e-08
3.43608e-09
-2.13681e-08
3.43827e-09
-2.22484e-08
3.43561e-09
-2.31266e-08
3.42817e-09
-2.40015e-08
3.41603e-09
-2.48718e-08
3.39926e-09
-2.57364e-08
3.37791e-09
-2.65941e-08
3.35202e-09
-2.74438e-08
3.32165e-09
-2.82842e-08
3.28681e-09
-2.91144e-08
3.24754e-09
-2.9933e-08
3.20385e-09
-3.0739e-08
3.15576e-09
-3.15313e-08
3.10328e-09
-3.23086e-08
3.04641e-09
-3.307e-08
2.98517e-09
-3.38142e-08
2.91956e-09
-3.45402e-08
2.84958e-09
-3.52469e-08
2.77525e-09
-3.59331e-08
2.69657e-09
-3.65977e-08
2.61356e-09
-3.72397e-08
2.52623e-09
-3.7858e-08
2.43461e-09
-3.84514e-08
2.33872e-09
-3.9019e-08
2.23861e-09
-3.95596e-08
2.13432e-09
-4.00723e-08
2.02589e-09
-4.05561e-08
1.91341e-09
-4.10099e-08
1.79693e-09
-4.14327e-08
1.67655e-09
-4.18237e-08
1.55236e-09
-4.21819e-08
1.42448e-09
-4.25064e-08
1.29303e-09
-4.27965e-08
1.15813e-09
-4.30512e-08
1.01995e-09
-4.32699e-08
8.78653e-10
-4.34518e-08
7.34409e-10
-4.35963e-08
5.87417e-10
-4.37027e-08
4.37884e-10
-4.37706e-08
2.86034e-10
-4.37993e-08
1.32105e-10
-4.37886e-08
-2.36528e-11
-4.37379e-08
-1.80971e-10
-4.36471e-08
-3.39571e-10
-4.35159e-08
-4.99158e-10
-4.33442e-08
-6.59426e-10
-4.3132e-08
-8.20056e-10
-4.28791e-08
-9.80717e-10
-4.25858e-08
-1.14107e-09
-4.22523e-08
-1.30076e-09
-4.18788e-08
-1.45942e-09
-4.14657e-08
-1.6167e-09
-4.10135e-08
-1.77221e-09
-4.05227e-08
-1.92556e-09
-3.9994e-08
-2.07639e-09
-3.94281e-08
-2.22429e-09
-3.88259e-08
-2.36887e-09
-3.81884e-08
-2.50974e-09
-3.75165e-08
-2.64652e-09
-3.68115e-08
-2.77881e-09
-3.60745e-08
-2.90622e-09
-3.53068e-08
-3.02838e-09
-3.45099e-08
-3.14492e-09
-3.36852e-08
-3.25547e-09
-3.28344e-08
-3.35968e-09
-3.19591e-08
-3.45721e-09
-3.10611e-08
-3.54774e-09
-3.01421e-08
-3.63094e-09
-2.92041e-08
-3.70654e-09
-2.8249e-08
-3.77424e-09
-2.72789e-08
-3.83379e-09
-2.62958e-08
-3.88497e-09
-2.53018e-08
-3.92755e-09
-2.42992e-08
-3.96135e-09
-2.32901e-08
-3.9862e-09
-2.22768e-08
-4.00196e-09
-2.12615e-08
-4.00854e-09
-2.02466e-08
-4.00583e-09
-1.92344e-08
-3.9938e-09
-1.82271e-08
-3.97242e-09
-1.7227e-08
-3.9417e-09
-1.62366e-08
-3.90167e-09
-1.52579e-08
-3.85242e-09
-1.42933e-08
-3.79403e-09
-1.33451e-08
-3.72665e-09
-1.24153e-08
-3.65045e-09
-1.15061e-08
-3.56563e-09
-1.06195e-08
-3.47241e-09
-9.75767e-09
-3.37108e-09
-8.92237e-09
-3.26193e-09
-8.11549e-09
-3.1453e-09
-7.33877e-09
-3.02155e-09
-6.59385e-09
-2.89108e-09
-5.88228e-09
-2.75435e-09
-5.20546e-09
-2.61181e-09
-4.56469e-09
-2.46398e-09
-3.96112e-09
-2.31141e-09
-3.39574e-09
-2.15468e-09
-2.86941e-09
-1.99442e-09
-2.38281e-09
-1.8313e-09
-1.93642e-09
-1.66604e-09
-1.53057e-09
-1.49941e-09
-1.16536e-09
-1.33225e-09
-8.40679e-10
-1.16543e-09
-5.56174e-10
-9.99925e-10
-3.11254e-10
-8.36778e-10
-1.05058e-10
-6.7712e-10
6.35619e-11
-5.2219e-10
1.9606e-10
-3.73345e-10
2.94216e-10
-2.32076e-10
3.60165e-10
-1.00029e-10
3.96414e-10
2.09791e-11
4.05867e-10
1.28938e-10
3.91851e-10
2.21631e-10
3.58134e-10
2.96623e-10
3.08953e-10
3.51261e-10
2.49044e-10
3.82692e-10
1.83687e-10
3.87907e-10
1.18797e-10
3.63808e-10
6.10784e-11
3.07325e-10
1.83161e-11
2.1553e-10
8.55817e-11
2.5013e-12
-6.71385e-11
-2.98325e-13
-1.22582e-10
-1.68719e-11
-1.15007e-10
-5.41787e-11
-5.66946e-11
-1.17941e-10
4.24579e-11
-2.12817e-10
1.73958e-10
-3.42536e-10
3.3054e-10
-5.10007e-10
5.06041e-10
-7.17417e-10
6.95255e-10
-9.66305e-10
8.93805e-10
-1.25765e-09
1.09803e-09
-1.59192e-09
1.3049e-09
-1.96916e-09
1.51189e-09
-2.38904e-09
1.71693e-09
-2.85092e-09
1.91836e-09
-3.35389e-09
2.11481e-09
-3.8968e-09
2.30521e-09
-4.47836e-09
2.48869e-09
-5.09709e-09
2.66462e-09
-5.75141e-09
2.8325e-09
-6.43966e-09
2.99197e-09
-7.1601e-09
3.14279e-09
-7.91095e-09
3.28483e-09
-8.6904e-09
3.41802e-09
-9.49662e-09
3.54236e-09
-1.03278e-08
3.65789e-09
-1.1182e-08
3.76472e-09
-1.20576e-08
3.86296e-09
-1.29527e-08
3.95277e-09
-1.38655e-08
4.03431e-09
-1.47942e-08
4.10777e-09
-1.57373e-08
4.17333e-09
-1.66929e-08
4.23117e-09
-1.76595e-08
4.2815e-09
-1.86354e-08
4.32449e-09
-1.96191e-08
4.36033e-09
-2.06089e-08
4.38919e-09
-2.16034e-08