/*--------------------------------*- C++ -*----------------------------------*\
| =========                 |                                                 |
| \\      /  F ield         | OpenFOAM: The Open Source CFD Toolbox           |
|  \\    /   O peration     | Version:  2.1.1                                 |
|   \\  /    A nd           | Web:      www.OpenFOAM.org                      |
|    \\/     M anipulation  |                                                 |
\*---------------------------------------------------------------------------*/
FoamFile
{
    version     2.0;
    format      ascii;
    class       volVectorField;
    location    "0.8";
    object      U;
}
// * * * * * * * * * * * * * * * * * * * * * * * * * * * * * * * * * * * * * //

dimensions      [0 1 -1 0 0 0 0];

internalField   nonuniform List<vector> 
25921
(
(3.20957e-07 -3.18708e-07 0)
(3.51545e-06 -2.10111e-06 0)
(1.0551e-05 -3.17957e-06 0)
(1.90921e-05 -3.4859e-06 0)
(2.74384e-05 -3.28235e-06 0)
(3.45482e-05 -2.76328e-06 0)
(3.97299e-05 -2.05328e-06 0)
(4.25294e-05 -1.23316e-06 0)
(4.2665e-05 -3.54709e-07 0)
(3.99754e-05 5.48743e-07 0)
(3.43832e-05 1.45519e-06 0)
(2.58716e-05 2.34981e-06 0)
(1.44669e-05 3.22248e-06 0)
(2.27667e-07 4.06623e-06 0)
(-1.67647e-05 4.87635e-06 0)
(-3.64122e-05 5.6497e-06 0)
(-5.86046e-05 6.38433e-06 0)
(-8.32241e-05 7.07915e-06 0)
(-0.000110147 7.73373e-06 0)
(-0.000139248 8.34814e-06 0)
(-0.000170399 8.92282e-06 0)
(-0.000203474 9.4585e-06 0)
(-0.000238345 9.95612e-06 0)
(-0.00027489 1.04168e-05 0)
(-0.000312986 1.08417e-05 0)
(-0.000352517 1.12321e-05 0)
(-0.000393366 1.15894e-05 0)
(-0.000435424 1.19148e-05 0)
(-0.000478583 1.22096e-05 0)
(-0.000522739 1.24753e-05 0)
(-0.000567793 1.2713e-05 0)
(-0.000613649 1.29239e-05 0)
(-0.000660215 1.31093e-05 0)
(-0.000707402 1.32701e-05 0)
(-0.000755125 1.34075e-05 0)
(-0.000803302 1.35224e-05 0)
(-0.000851852 1.36156e-05 0)
(-0.0009007 1.36879e-05 0)
(-0.000949771 1.37402e-05 0)
(-0.000998993 1.37729e-05 0)
(-0.0010483 1.37867e-05 0)
(-0.00109761 1.37821e-05 0)
(-0.00114688 1.37594e-05 0)
(-0.00119602 1.37191e-05 0)
(-0.00124498 1.36614e-05 0)
(-0.00129369 1.35865e-05 0)
(-0.0013421 1.34947e-05 0)
(-0.00139013 1.3386e-05 0)
(-0.00143773 1.32604e-05 0)
(-0.00148484 1.31181e-05 0)
(-0.00153139 1.29589e-05 0)
(-0.00157732 1.27829e-05 0)
(-0.00162258 1.25899e-05 0)
(-0.00166709 1.23799e-05 0)
(-0.0017108 1.21527e-05 0)
(-0.00175365 1.19082e-05 0)
(-0.00179557 1.16464e-05 0)
(-0.0018365 1.1367e-05 0)
(-0.00187639 1.10699e-05 0)
(-0.00191515 1.07551e-05 0)
(-0.00195274 1.04224e-05 0)
(-0.00198908 1.00718e-05 0)
(-0.00202412 9.70318e-06 0)
(-0.0020578 9.31656e-06 0)
(-0.00209004 8.91196e-06 0)
(-0.00212078 8.48945e-06 0)
(-0.00214997 8.04912e-06 0)
(-0.00217754 7.59114e-06 0)
(-0.00220343 7.11572e-06 0)
(-0.00222757 6.62312e-06 0)
(-0.00224992 6.11367e-06 0)
(-0.00227042 5.58776e-06 0)
(-0.002289 5.04583e-06 0)
(-0.00230562 4.48842e-06 0)
(-0.00232022 3.91611e-06 0)
(-0.00233275 3.32956e-06 0)
(-0.00234317 2.72951e-06 0)
(-0.00235143 2.11678e-06 0)
(-0.00235749 1.49224e-06 0)
(-0.00236132 8.56851e-07 0)
(-0.00236287 2.1165e-07 0)
(-0.00236212 -4.42257e-07 0)
(-0.00235904 -1.10369e-06 0)
(-0.00235362 -1.7714e-06 0)
(-0.00234582 -2.44406e-06 0)
(-0.00233565 -3.12029e-06 0)
(-0.00232309 -3.79864e-06 0)
(-0.00230814 -4.47759e-06 0)
(-0.0022908 -5.15558e-06 0)
(-0.00227107 -5.83099e-06 0)
(-0.00224899 -6.50215e-06 0)
(-0.00222455 -7.16735e-06 0)
(-0.0021978 -7.82483e-06 0)
(-0.00216875 -8.47282e-06 0)
(-0.00213746 -9.10951e-06 0)
(-0.00210396 -9.73309e-06 0)
(-0.0020683 -1.03417e-05 0)
(-0.00203054 -1.09335e-05 0)
(-0.00199075 -1.15067e-05 0)
(-0.00194898 -1.20595e-05 0)
(-0.00190533 -1.259e-05 0)
(-0.00185986 -1.30964e-05 0)
(-0.00181267 -1.35771e-05 0)
(-0.00176386 -1.40303e-05 0)
(-0.00171351 -1.44544e-05 0)
(-0.00166173 -1.48478e-05 0)
(-0.00160864 -1.5209e-05 0)
(-0.00155434 -1.55365e-05 0)
(-0.00149897 -1.5829e-05 0)
(-0.00144263 -1.60853e-05 0)
(-0.00138546 -1.63041e-05 0)
(-0.0013276 -1.64844e-05 0)
(-0.00126917 -1.66253e-05 0)
(-0.00121031 -1.67259e-05 0)
(-0.00115117 -1.67856e-05 0)
(-0.00109189 -1.68037e-05 0)
(-0.00103261 -1.67798e-05 0)
(-0.000973471 -1.67136e-05 0)
(-0.00091463 -1.6605e-05 0)
(-0.00085623 -1.64539e-05 0)
(-0.000798417 -1.62604e-05 0)
(-0.000741336 -1.60248e-05 0)
(-0.000685131 -1.57476e-05 0)
(-0.000629947 -1.54291e-05 0)
(-0.000575922 -1.50703e-05 0)
(-0.000523196 -1.46719e-05 0)
(-0.000471901 -1.42348e-05 0)
(-0.00042217 -1.37603e-05 0)
(-0.000374128 -1.32496e-05 0)
(-0.000327898 -1.27041e-05 0)
(-0.000283595 -1.21253e-05 0)
(-0.00024133 -1.15149e-05 0)
(-0.00020121 -1.08748e-05 0)
(-0.00016333 -1.02068e-05 0)
(-0.000127782 -9.5131e-06 0)
(-9.46485e-05 -8.79587e-06 0)
(-6.40048e-05 -8.05749e-06 0)
(-3.59166e-05 -7.30047e-06 0)
(-1.04402e-05 -6.52752e-06 0)
(1.2378e-05 -5.74155e-06 0)
(3.25024e-05 -4.94558e-06 0)
(4.99093e-05 -4.143e-06 0)
(6.45876e-05 -3.33744e-06 0)
(7.654e-05 -2.5329e-06 0)
(8.57845e-05 -1.73381e-06 0)
(9.23561e-05 -9.45171e-07 0)
(9.63086e-05 -1.72674e-07 0)
(9.77178e-05 5.77063e-07 0)
(9.66841e-05 1.29618e-06 0)
(9.33372e-05 1.97529e-06 0)
(8.78414e-05 2.60276e-06 0)
(8.04026e-05 3.16386e-06 0)
(7.12783e-05 3.63952e-06 0)
(6.07895e-05 4.00434e-06 0)
(4.93386e-05 4.22355e-06 0)
(3.74332e-05 4.24869e-06 0)
(2.57167e-05 4.01337e-06 0)
(1.49956e-05 3.43243e-06 0)
(6.25989e-06 2.40652e-06 0)
(7.08085e-07 8.95545e-07 0)
(-5.53966e-07 -5.53256e-07 0)
(2.10316e-06 -3.51112e-06 0)
(1.07071e-05 -1.06996e-05 0)
(2.57372e-05 -1.4725e-05 0)
(4.28618e-05 -1.56219e-05 0)
(5.88654e-05 -1.41932e-05 0)
(7.15528e-05 -1.11356e-05 0)
(7.92813e-05 -6.97179e-06 0)
(8.08653e-05 -2.08461e-06 0)
(7.55002e-05 3.25087e-06 0)
(6.26734e-05 8.83731e-06 0)
(4.2093e-05 1.45319e-05 0)
(1.36348e-05 2.02307e-05 0)
(-2.26983e-05 2.58575e-05 0)
(-6.68066e-05 3.13561e-05 0)
(-0.000118518 3.66857e-05 0)
(-0.000177605 4.18166e-05 0)
(-0.000243801 4.67281e-05 0)
(-0.000316808 5.14059e-05 0)
(-0.00039631 5.5841e-05 0)
(-0.000481975 6.00286e-05 0)
(-0.000573466 6.39671e-05 0)
(-0.000670439 6.76572e-05 0)
(-0.000772552 7.11016e-05 0)
(-0.000879464 7.43046e-05 0)
(-0.000990842 7.72715e-05 0)
(-0.00110636 8.00086e-05 0)
(-0.00122568 8.25225e-05 0)
(-0.00134851 8.48203e-05 0)
(-0.00147454 8.69095e-05 0)
(-0.00160347 8.87973e-05 0)
(-0.00173501 9.0491e-05 0)
(-0.0018689 9.19979e-05 0)
(-0.00200486 9.33249e-05 0)
(-0.00214265 9.44786e-05 0)
(-0.002282 9.54653e-05 0)
(-0.00242268 9.6291e-05 0)
(-0.00256446 9.6961e-05 0)
(-0.00270711 9.74805e-05 0)
(-0.00285041 9.78541e-05 0)
(-0.00299416 9.8086e-05 0)
(-0.00313813 9.81798e-05 0)
(-0.00328214 9.81389e-05 0)
(-0.00342598 9.7966e-05 0)
(-0.00356946 9.76636e-05 0)
(-0.00371239 9.72336e-05 0)
(-0.00385457 9.66778e-05 0)
(-0.00399583 9.59973e-05 0)
(-0.00413598 9.51932e-05 0)
(-0.00427484 9.42661e-05 0)
(-0.00441222 9.32163e-05 0)
(-0.00454794 9.2044e-05 0)
(-0.00468182 9.07493e-05 0)
(-0.00481368 8.93318e-05 0)
(-0.00494334 8.77912e-05 0)
(-0.00507062 8.61271e-05 0)
(-0.00519533 8.4339e-05 0)
(-0.00531729 8.24264e-05 0)
(-0.00543631 8.03887e-05 0)
(-0.00555223 7.82256e-05 0)
(-0.00566484 7.59367e-05 0)
(-0.00577396 7.35217e-05 0)
(-0.00587942 7.09805e-05 0)
(-0.00598103 6.83133e-05 0)
(-0.00607861 6.55203e-05 0)
(-0.00617196 6.26022e-05 0)
(-0.00626092 5.95597e-05 0)
(-0.00634531 5.63941e-05 0)
(-0.00642494 5.31067e-05 0)
(-0.00649964 4.96995e-05 0)
(-0.00656925 4.61747e-05 0)
(-0.00663359 4.25348e-05 0)
(-0.00669251 3.8783e-05 0)
(-0.00674583 3.49227e-05 0)
(-0.00679342 3.09579e-05 0)
(-0.00683513 2.68929e-05 0)
(-0.00687082 2.27326e-05 0)
(-0.00690035 1.84824e-05 0)
(-0.0069236 1.41482e-05 0)
(-0.00694046 9.73619e-06 0)
(-0.00695083 5.25332e-06 0)
(-0.00695461 7.06888e-07 0)
(-0.00695171 -3.89531e-06 0)
(-0.00694208 -8.54499e-06 0)
(-0.00692563 -1.32334e-05 0)
(-0.00690234 -1.79514e-05 0)
(-0.00687217 -2.26893e-05 0)
(-0.00683511 -2.7437e-05 0)
(-0.00679113 -3.21842e-05 0)
(-0.00674027 -3.69201e-05 0)
(-0.00668255 -4.16335e-05 0)
(-0.00661801 -4.6313e-05 0)
(-0.00654671 -5.09469e-05 0)
(-0.00646873 -5.55233e-05 0)
(-0.00638417 -6.00301e-05 0)
(-0.00629313 -6.4455e-05 0)
(-0.00619575 -6.87856e-05 0)
(-0.00609218 -7.30096e-05 0)
(-0.00598257 -7.71145e-05 0)
(-0.00586712 -8.10879e-05 0)
(-0.00574603 -8.49175e-05 0)
(-0.0056195 -8.85912e-05 0)
(-0.00548778 -9.2097e-05 0)
(-0.00535113 -9.54233e-05 0)
(-0.00520979 -9.85587e-05 0)
(-0.00506408 -0.000101492 0)
(-0.00491427 -0.000104213 0)
(-0.00476069 -0.000106711 0)
(-0.00460366 -0.000108977 0)
(-0.00444353 -0.000111002 0)
(-0.00428065 -0.000112777 0)
(-0.00411538 -0.000114295 0)
(-0.00394811 -0.000115548 0)
(-0.00377921 -0.000116531 0)
(-0.00360908 -0.000117237 0)
(-0.00343812 -0.000117663 0)
(-0.00326674 -0.000117804 0)
(-0.00309534 -0.000117658 0)
(-0.00292434 -0.000117223 0)
(-0.00275417 -0.000116497 0)
(-0.00258522 -0.000115482 0)
(-0.00241793 -0.000114177 0)
(-0.0022527 -0.000112585 0)
(-0.00208994 -0.000110708 0)
(-0.00193007 -0.000108551 0)
(-0.00177347 -0.000106118 0)
(-0.00162053 -0.000103416 0)
(-0.00147165 -0.000100452 0)
(-0.00132719 -9.72329e-05 0)
(-0.0011875 -9.37681e-05 0)
(-0.00105294 -9.00676e-05 0)
(-0.000923828 -8.61421e-05 0)
(-0.00080048 -8.20037e-05 0)
(-0.000683189 -7.76651e-05 0)
(-0.000572232 -7.31402e-05 0)
(-0.000467862 -6.84438e-05 0)
(-0.000370311 -6.3592e-05 0)
(-0.000279784 -5.86017e-05 0)
(-0.000196465 -5.34912e-05 0)
(-0.000120506 -4.828e-05 0)
(-5.20299e-05 -4.29891e-05 0)
(8.87053e-06 -3.7641e-05 0)
(6.21388e-05 -3.226e-05 0)
(0.000107755 -2.68728e-05 0)
(0.000145742 -2.15085e-05 0)
(0.000176164 -1.61993e-05 0)
(0.000199139 -1.0981e-05 0)
(0.000214838 -5.89452e-06 0)
(0.000223494 -9.86153e-07 0)
(0.000225414 3.69019e-06 0)
(0.000220984 8.07138e-06 0)
(0.000210686 1.2082e-05 0)
(0.000195116 1.5631e-05 0)
(0.000174999 1.86067e-05 0)
(0.000151218 2.08704e-05 0)
(0.000124842 2.22488e-05 0)
(9.71601e-05 2.2525e-05 0)
(6.971e-05 2.14379e-05 0)
(4.4268e-05 1.8701e-05 0)
(2.27882e-05 1.40612e-05 0)
(7.53682e-06 7.54663e-06 0)
(8.90796e-07 7.06438e-07 0)
(3.18832e-06 -1.0556e-05 0)
(1.47619e-05 -2.5739e-05 0)
(3.34583e-05 -3.33983e-05 0)
(5.35281e-05 -3.42924e-05 0)
(7.09231e-05 -2.98663e-05 0)
(8.2826e-05 -2.14741e-05 0)
(8.70151e-05 -1.02317e-05 0)
(8.1806e-05 2.98257e-06 0)
(6.59982e-05 1.74954e-05 0)
(3.87842e-05 3.2796e-05 0)
(-3.30894e-07 4.84973e-05 0)
(-5.15941e-05 6.43064e-05 0)
(-0.000115058 8.00016e-05 0)
(-0.000190622 9.54152e-05 0)
(-0.000278068 0.000110421 0)
(-0.000377086 0.000124926 0)
(-0.000487296 0.00013886 0)
(-0.000608268 0.000152176 0)
(-0.000739531 0.00016484 0)
(-0.000880589 0.00017683 0)
(-0.00103093 0.000188136 0)
(-0.00119003 0.000198756 0)
(-0.00135735 0.00020869 0)
(-0.00153238 0.000217948 0)
(-0.00171459 0.000226541 0)
(-0.00190346 0.000234483 0)
(-0.00209849 0.000241789 0)
(-0.00229917 0.000248479 0)
(-0.00250503 0.00025457 0)
(-0.0027156 0.000260081 0)
(-0.00293041 0.000265032 0)
(-0.00314903 0.000269442 0)
(-0.00337102 0.000273328 0)
(-0.00359597 0.00027671 0)
(-0.00382348 0.000279603 0)
(-0.00405315 0.000282024 0)
(-0.0042846 0.000283988 0)
(-0.00451747 0.00028551 0)
(-0.0047514 0.000286601 0)
(-0.00498604 0.000287273 0)
(-0.00522104 0.000287537 0)
(-0.00545608 0.000287402 0)
(-0.00569083 0.000286877 0)
(-0.00592496 0.000285967 0)
(-0.00615817 0.000284679 0)
(-0.00639015 0.000283017 0)
(-0.00662058 0.000280986 0)
(-0.00684915 0.000278588 0)
(-0.00707558 0.000275826 0)
(-0.00729956 0.000272701 0)
(-0.00752079 0.000269214 0)
(-0.00773896 0.000265365 0)
(-0.00795379 0.000261154 0)
(-0.00816497 0.00025658 0)
(-0.00837221 0.000251642 0)
(-0.00857521 0.000246341 0)
(-0.00877367 0.000240674 0)
(-0.00896728 0.000234641 0)
(-0.00915576 0.000228241 0)
(-0.0093388 0.000221473 0)
(-0.0095161 0.000214339 0)
(-0.00968737 0.000206837 0)
(-0.0098523 0.000198968 0)
(-0.0100106 0.000190735 0)
(-0.010162 0.000182139 0)
(-0.0103061 0.000173184 0)
(-0.0104428 0.000163873 0)
(-0.0105717 0.000154211 0)
(-0.0106925 0.000144205 0)
(-0.010805 0.00013386 0)
(-0.0109088 0.000123186 0)
(-0.0110038 0.00011219 0)
(-0.0110897 0.000100885 0)
(-0.0111662 8.92816e-05 0)
(-0.0112332 7.7393e-05 0)
(-0.0112903 6.52338e-05 0)
(-0.0113374 5.28198e-05 0)
(-0.0113743 4.01682e-05 0)
(-0.0114008 2.72978e-05 0)
(-0.0114167 1.42284e-05 0)
(-0.011422 9.8154e-07 0)
(-0.0114164 -1.24201e-05 0)
(-0.0113999 -2.59525e-05 0)
(-0.0113723 -3.95901e-05 0)
(-0.0113337 -5.33065e-05 0)
(-0.0112839 -6.70737e-05 0)
(-0.011223 -8.08628e-05 0)
(-0.0111509 -9.46437e-05 0)
(-0.0110676 -0.000108385 0)
(-0.0109733 -0.000122056 0)
(-0.0108679 -0.000135622 0)
(-0.0107517 -0.00014905 0)
(-0.0106246 -0.000162307 0)
(-0.0104869 -0.000175357 0)
(-0.0103388 -0.000188166 0)
(-0.0101805 -0.000200697 0)
(-0.0100122 -0.000212916 0)
(-0.00983414 -0.000224788 0)
(-0.00964668 -0.000236275 0)
(-0.00945013 -0.000247345 0)
(-0.00924484 -0.000257962 0)
(-0.00903119 -0.000268092 0)
(-0.00880958 -0.000277702 0)
(-0.00858046 -0.000286759 0)
(-0.00834427 -0.000295233 0)
(-0.0081015 -0.000303092 0)
(-0.00785266 -0.00031031 0)
(-0.00759826 -0.000316857 0)
(-0.00733887 -0.000322709 0)
(-0.00707504 -0.000327842 0)
(-0.00680737 -0.000332234 0)
(-0.00653645 -0.000335866 0)
(-0.0062629 -0.000338719 0)
(-0.00598736 -0.000340778 0)
(-0.00571045 -0.00034203 0)
(-0.00543284 -0.000342465 0)
(-0.00515518 -0.000342075 0)
(-0.00487812 -0.000340854 0)
(-0.00460235 -0.000338801 0)
(-0.00432851 -0.000335915 0)
(-0.00405729 -0.000332198 0)
(-0.00378933 -0.000327658 0)
(-0.00352529 -0.000322302 0)
(-0.00326581 -0.000316143 0)
(-0.00301155 -0.000309194 0)
(-0.00276311 -0.000301473 0)
(-0.0025211 -0.000293 0)
(-0.00228612 -0.000283799 0)
(-0.00205873 -0.000273895 0)
(-0.00183949 -0.000263317 0)
(-0.00162891 -0.000252097 0)
(-0.0014275 -0.000240269 0)
(-0.00123572 -0.000227871 0)
(-0.001054 -0.000214944 0)
(-0.000882755 -0.000201531 0)
(-0.000722337 -0.000187679 0)
(-0.000573077 -0.000173438 0)
(-0.000435255 -0.000158861 0)
(-0.000309111 -0.000144006 0)
(-0.000194832 -0.000128935 0)
(-9.25543e-05 -0.000113714 0)
(-2.35877e-06 -9.84145e-05 0)
(7.57361e-05 -8.31153e-05 0)
(0.000141778 -6.79017e-05 0)
(0.000195886 -5.28681e-05 0)
(0.000238262 -3.81194e-05 0)
(0.000269193 -2.37732e-05 0)
(0.000289067 -9.96294e-06 0)
(0.000298383 3.15855e-06 0)
(0.000297766 1.54143e-05 0)
(0.000287983 2.65977e-05 0)
(0.000269968 3.64649e-05 0)
(0.00024484 4.47261e-05 0)
(0.000213935 5.10359e-05 0)
(0.00017883 5.49845e-05 0)
(0.000141371 5.60935e-05 0)
(0.00010369 5.3833e-05 0)
(6.8149e-05 4.76839e-05 0)
(3.7244e-05 3.72795e-05 0)
(1.40274e-05 2.27882e-05 0)
(2.39316e-06 6.24339e-06 0)
(3.50868e-06 -1.91304e-05 0)
(1.5715e-05 -4.29175e-05 0)
(3.4466e-05 -5.34934e-05 0)
(5.31278e-05 -5.29229e-05 0)
(6.7137e-05 -4.34689e-05 0)
(7.33094e-05 -2.7212e-05 0)
(6.90836e-05 -5.91955e-06 0)
(5.24665e-05 1.89688e-05 0)
(2.19931e-05 4.63076e-05 0)
(-2.33577e-05 7.51972e-05 0)
(-8.42405e-05 0.000104935 0)
(-0.000161009 0.000134976 0)
(-0.000253775 0.000164896 0)
(-0.000362452 0.00019437 0)
(-0.0004868 0.000223145 0)
(-0.000626456 0.000251034 0)
(-0.000780958 0.000277892 0)
(-0.000949772 0.000303616 0)
(-0.00113231 0.000328132 0)
(-0.00132794 0.000351391 0)
(-0.00153601 0.000373364 0)
(-0.00175583 0.000394037 0)
(-0.00198672 0.000413409 0)
(-0.00222799 0.000431488 0)
(-0.00247896 0.000448292 0)
(-0.00273893 0.000463844 0)
(-0.00300724 0.000478169 0)
(-0.00328322 0.0004913 0)
(-0.00356624 0.000503268 0)
(-0.00385565 0.000514107 0)
(-0.00415084 0.000523851 0)
(-0.00445121 0.000532536 0)
(-0.00475618 0.000540195 0)
(-0.00506518 0.000546861 0)
(-0.00537767 0.000552565 0)
(-0.0056931 0.000557338 0)
(-0.00601096 0.000561208 0)
(-0.00633075 0.0005642 0)
(-0.00665196 0.000566339 0)
(-0.00697413 0.000567647 0)
(-0.00729677 0.000568143 0)
(-0.00761944 0.000567846 0)
(-0.00794167 0.000566771 0)
(-0.00826303 0.000564931 0)
(-0.00858308 0.000562338 0)
(-0.0089014 0.000559 0)
(-0.00921754 0.000554927 0)
(-0.0095311 0.000550123 0)
(-0.00984165 0.000544594 0)
(-0.0101488 0.000538343 0)
(-0.0104521 0.000531371 0)
(-0.0107511 0.00052368 0)
(-0.0110455 0.000515271 0)
(-0.0113349 0.000506142 0)
(-0.0116187 0.000496293 0)
(-0.0118967 0.000485723 0)
(-0.0121683 0.00047443 0)
(-0.0124332 0.000462415 0)
(-0.0126911 0.000449675 0)
(-0.0129413 0.000436212 0)
(-0.0131837 0.000422025 0)
(-0.0134177 0.000407117 0)
(-0.0136429 0.000391489 0)
(-0.013859 0.000375146 0)
(-0.0140656 0.000358092 0)
(-0.0142622 0.000340335 0)
(-0.0144484 0.000321883 0)
(-0.014624 0.000302746 0)
(-0.0147884 0.000282937 0)
(-0.0149413 0.000262469 0)
(-0.0150825 0.00024136 0)
(-0.0152114 0.000219628 0)
(-0.0153279 0.000197294 0)
(-0.0154315 0.000174384 0)
(-0.0155219 0.000150921 0)
(-0.015599 0.000126937 0)
(-0.0156623 0.000102461 0)
(-0.0157116 7.75294e-05 0)
(-0.0157467 5.21776e-05 0)
(-0.0157674 2.64456e-05 0)
(-0.0157735 3.75349e-07 0)
(-0.0157648 -2.59883e-05 0)
(-0.0157412 -5.2598e-05 0)
(-0.0157025 -7.9404e-05 0)
(-0.0156487 -0.000106354 0)
(-0.0155798 -0.000133394 0)
(-0.0154956 -0.000160467 0)
(-0.0153962 -0.000187514 0)
(-0.0152817 -0.000214475 0)
(-0.0151521 -0.000241288 0)
(-0.0150075 -0.000267888 0)
(-0.0148481 -0.00029421 0)
(-0.014674 -0.000320188 0)
(-0.0144855 -0.000345755 0)
(-0.0142829 -0.000370842 0)
(-0.0140663 -0.00039538 0)
(-0.0138362 -0.000419302 0)
(-0.0135929 -0.000442538 0)
(-0.0133369 -0.00046502 0)
(-0.0130685 -0.000486679 0)
(-0.0127882 -0.00050745 0)
(-0.0124967 -0.000527267 0)
(-0.0121943 -0.000546065 0)
(-0.0118817 -0.000563781 0)
(-0.0115596 -0.000580356 0)
(-0.0112285 -0.000595732 0)
(-0.0108892 -0.000609852 0)
(-0.0105424 -0.000622664 0)
(-0.0101888 -0.00063412 0)
(-0.00982917 -0.000644173 0)
(-0.00946431 -0.000652782 0)
(-0.00909502 -0.000659907 0)
(-0.00872215 -0.000665516 0)
(-0.00834654 -0.000669579 0)
(-0.00796905 -0.000672071 0)
(-0.00759056 -0.000672971 0)
(-0.00721195 -0.000672266 0)
(-0.00683412 -0.000669944 0)
(-0.00645795 -0.000666002 0)
(-0.00608436 -0.00066044 0)
(-0.00571421 -0.000653264 0)
(-0.00534842 -0.000644485 0)
(-0.00498785 -0.000634121 0)
(-0.00463338 -0.000622194 0)
(-0.00428586 -0.000608734 0)
(-0.00394613 -0.000593773 0)
(-0.00361499 -0.000577353 0)
(-0.00329326 -0.000559517 0)
(-0.00298168 -0.000540318 0)
(-0.002681 -0.000519812 0)
(-0.00239192 -0.000498061 0)
(-0.0021151 -0.000475134 0)
(-0.00185116 -0.000451104 0)
(-0.00160069 -0.000426051 0)
(-0.00136423 -0.000400061 0)
(-0.00114225 -0.000373226 0)
(-0.000935192 -0.000345646 0)
(-0.000743423 -0.000317425 0)
(-0.000567257 -0.000288678 0)
(-0.000406936 -0.000259526 0)
(-0.000262635 -0.000230101 0)
(-0.000134451 -0.000200543 0)
(-2.23967e-05 -0.000171009 0)
(7.3604e-05 -0.000141664 0)
(0.000153725 -0.000112695 0)
(0.000218246 -8.43053e-05 0)
(0.000267566 -5.67232e-05 0)
(0.000302212 -3.0205e-05 0)
(0.000322857 -5.04148e-06 0)
(0.000330332 1.8435e-05 0)
(0.000325648 3.98419e-05 0)
(0.000310018 5.87366e-05 0)
(0.000284877 7.46053e-05 0)
(0.000251906 8.68527e-05 0)
(0.000213056 9.4796e-05 0)
(0.000170565 9.76705e-05 0)
(0.000126968 9.46651e-05 0)
(8.50275e-05 8.50145e-05 0)
(4.76572e-05 6.81824e-05 0)
(1.86537e-05 4.42476e-05 0)
(3.41002e-06 1.49483e-05 0)
(3.32387e-06 -2.75473e-05 0)
(1.43554e-05 -5.90375e-05 0)
(3.01683e-05 -7.09777e-05 0)
(4.38487e-05 -6.69632e-05 0)
(5.05932e-05 -5.02083e-05 0)
(4.70079e-05 -2.35679e-05 0)
(3.03478e-05 1.05213e-05 0)
(-1.55104e-06 5.00407e-05 0)
(-5.03104e-05 9.33472e-05 0)
(-0.000117087 0.000139119 0)
(-0.000202642 0.0001863 0)
(-0.000307409 0.000234054 0)
(-0.000431544 0.000281718 0)
(-0.000574977 0.000328773 0)
(-0.000737454 0.000374813 0)
(-0.000918573 0.000419525 0)
(-0.00111781 0.00046267 0)
(-0.00133456 0.00050407 0)
(-0.00156813 0.000543596 0)
(-0.00181777 0.000581157 0)
(-0.00208272 0.000616695 0)
(-0.00236216 0.000650181 0)
(-0.00265527 0.000681601 0)
(-0.00296123 0.000710964 0)
(-0.00327919 0.000738288 0)
(-0.00360832 0.000763603 0)
(-0.00394782 0.000786947 0)
(-0.00429685 0.000808364 0)
(-0.00465464 0.000827901 0)
(-0.0050204 0.000845609 0)
(-0.00539337 0.000861539 0)
(-0.00577281 0.000875744 0)
(-0.00615798 0.000888275 0)
(-0.00654819 0.000899184 0)
(-0.00694275 0.000908518 0)
(-0.00734098 0.000916324 0)
(-0.00774224 0.000922647 0)
(-0.00814588 0.000927526 0)
(-0.0085513 0.000931001 0)
(-0.00895787 0.000933106 0)
(-0.009365 0.000933871 0)
(-0.00977212 0.000933326 0)
(-0.0101787 0.000931494 0)
(-0.010584 0.000928398 0)
(-0.0109877 0.000924056 0)
(-0.0113891 0.000918484 0)
(-0.0117878 0.000911693 0)
(-0.0121831 0.000903695 0)
(-0.0125745 0.000894498 0)
(-0.0129616 0.000884107 0)
(-0.0133438 0.000872526 0)
(-0.0137205 0.000859757 0)
(-0.0140913 0.000845803 0)
(-0.0144556 0.000830664 0)
(-0.0148129 0.000814338 0)
(-0.0151627 0.000796826 0)
(-0.0155044 0.000778126 0)
(-0.0158376 0.000758239 0)
(-0.0161618 0.000737164 0)
(-0.0164764 0.000714902 0)
(-0.0167809 0.000691456 0)
(-0.0170748 0.00066683 0)
(-0.0173575 0.000641028 0)
(-0.0176287 0.000614057 0)
(-0.0178878 0.000585929 0)
(-0.0181342 0.000556655 0)
(-0.0183676 0.000526249 0)
(-0.0185874 0.000494731 0)
(-0.0187932 0.00046212 0)
(-0.0189845 0.000428442 0)
(-0.0191608 0.000393725 0)
(-0.0193218 0.000358 0)
(-0.019467 0.000321304 0)
(-0.019596 0.000283675 0)
(-0.0197085 0.000245158 0)
(-0.019804 0.0002058 0)
(-0.0198823 0.000165654 0)
(-0.0199431 0.000124776 0)
(-0.0199859 8.32272e-05 0)
(-0.0200107 4.10714e-05 0)
(-0.0200171 -1.62182e-06 0)
(-0.0200049 -4.47792e-05 0)
(-0.019974 -8.83235e-05 0)
(-0.0199243 -0.000132174 0)
(-0.0198556 -0.000176244 0)
(-0.0197679 -0.000220447 0)
(-0.0196612 -0.000264689 0)
(-0.0195354 -0.000308876 0)
(-0.0193907 -0.000352909 0)
(-0.0192271 -0.000396687 0)
(-0.0190448 -0.000440106 0)
(-0.018844 -0.00048306 0)
(-0.0186248 -0.000525443 0)
(-0.0183877 -0.000567144 0)
(-0.0181328 -0.000608055 0)
(-0.0178607 -0.000648063 0)
(-0.0175716 -0.000687059 0)
(-0.017266 -0.00072493 0)
(-0.0169446 -0.000761568 0)
(-0.0166077 -0.000796862 0)
(-0.0162561 -0.000830704 0)
(-0.0158903 -0.00086299 0)
(-0.0155111 -0.000893614 0)
(-0.0151191 -0.000922477 0)
(-0.0147152 -0.000949482 0)
(-0.0143002 -0.000974535 0)
(-0.0138749 -0.000997547 0)
(-0.0134402 -0.00101843 0)
(-0.012997 -0.00103712 0)
(-0.0125463 -0.00105352 0)
(-0.012089 -0.00106758 0)
(-0.0116262 -0.00107923 0)
(-0.0111589 -0.00108842 0)
(-0.0106881 -0.0010951 0)
(-0.0102149 -0.00109924 0)
(-0.00974042 -0.00110079 0)
(-0.00926572 -0.00109974 0)
(-0.00879191 -0.00109608 0)
(-0.00832009 -0.00108978 0)
(-0.00785138 -0.00108086 0)
(-0.00738688 -0.00106933 0)
(-0.00692768 -0.0010552 0)
(-0.00647488 -0.0010385 0)
(-0.00602955 -0.00101927 0)
(-0.00559275 -0.000997558 0)
(-0.0051655 -0.000973419 0)
(-0.00474883 -0.000946917 0)
(-0.0043437 -0.000918126 0)
(-0.00395106 -0.00088713 0)
(-0.00357182 -0.000854021 0)
(-0.00320684 -0.000818901 0)
(-0.00285694 -0.000781882 0)
(-0.00252289 -0.000743085 0)
(-0.00220541 -0.00070264 0)
(-0.00190515 -0.000660688 0)
(-0.00162271 -0.000617379 0)
(-0.0013586 -0.000572877 0)
(-0.00111329 -0.000527353 0)
(-0.000887161 -0.000480995 0)
(-0.000680493 -0.000434002 0)
(-0.000493497 -0.000386589 0)
(-0.000326282 -0.000338986 0)
(-0.000178856 -0.000291447 0)
(-5.11138e-05 -0.000244242 0)
(5.71668e-05 -0.000197673 0)
(0.00014634 -0.000152068 0)
(0.0002169 -0.000107793 0)
(0.000269498 -6.52543e-05 0)
(0.000304954 -2.49105e-05 0)
(0.000324272 1.27217e-05 0)
(0.000328665 4.70551e-05 0)
(0.000319567 7.74211e-05 0)
(0.000298655 0.000103058 0)
(0.000267874 0.000123104 0)
(0.000229446 0.000136591 0)
(0.000185891 0.000142461 0)
(0.000140036 0.000139613 0)
(9.49557e-05 0.000126996 0)
(5.39312e-05 0.000103787 0)
(2.1416e-05 6.96984e-05 0)
(3.98717e-06 2.5634e-05 0)
(2.82454e-06 -3.47684e-05 0)
(1.13597e-05 -7.1898e-05 0)
(2.18667e-05 -8.30117e-05 0)
(2.76731e-05 -7.31866e-05 0)
(2.39873e-05 -4.66282e-05 0)
(7.33536e-06 -6.98508e-06 0)
(-2.50954e-05 4.26322e-05 0)
(-7.55355e-05 9.96238e-05 0)
(-0.000145677 0.000161843 0)
(-0.000236742 0.000227531 0)
(-0.000349552 0.000295263 0)
(-0.00048458 0.000363885 0)
(-0.00064201 0.000432473 0)
(-0.000821776 0.00050029 0)
(-0.00102361 0.000566752 0)
(-0.00124708 0.000631403 0)
(-0.00149161 0.000693889 0)
(-0.00175653 0.00075394 0)
(-0.00204106 0.000811356 0)
(-0.00234437 0.000865996 0)
(-0.00266558 0.000917764 0)
(-0.00300378 0.000966603 0)
(-0.00335803 0.00101249 0)
(-0.00372736 0.00105541 0)
(-0.00411083 0.0010954 0)
(-0.00450746 0.00113248 0)
(-0.00491631 0.00116671 0)
(-0.00533642 0.00119814 0)
(-0.00576688 0.00122683 0)
(-0.00620677 0.00125285 0)
(-0.00665519 0.00127626 0)
(-0.00711126 0.00129716 0)
(-0.00757413 0.00131559 0)
(-0.00804296 0.00133164 0)
(-0.00851693 0.00134536 0)
(-0.00899524 0.00135684 0)
(-0.00947713 0.00136612 0)
(-0.00996181 0.00137326 0)
(-0.0104486 0.00137833 0)
(-0.0109366 0.00138136 0)
(-0.0114253 0.00138241 0)
(-0.011914 0.0013815 0)
(-0.0124018 0.00137869 0)
(-0.0128882 0.001374 0)
(-0.0133725 0.00136745 0)
(-0.0138541 0.00135907 0)
(-0.0143322 0.00134888 0)
(-0.0148062 0.00133689 0)
(-0.0152756 0.00132312 0)
(-0.0157396 0.00130758 0)
(-0.0161976 0.00129027 0)
(-0.016649 0.00127119 0)
(-0.0170932 0.00125035 0)
(-0.0175295 0.00122776 0)
(-0.0179573 0.0012034 0)
(-0.0183761 0.00117729 0)
(-0.0187851 0.00114942 0)
(-0.0191838 0.0011198 0)
(-0.0195715 0.00108842 0)
(-0.0199476 0.00105529 0)
(-0.0203115 0.00102041 0)
(-0.0206627 0.000983796 0)
(-0.0210004 0.00094545 0)
(-0.0213242 0.000905387 0)
(-0.0216333 0.000863622 0)
(-0.0219273 0.000820176 0)
(-0.0222055 0.000775071 0)
(-0.0224674 0.000728336 0)
(-0.0227125 0.000680004 0)
(-0.0229401 0.000630112 0)
(-0.0231498 0.000578702 0)
(-0.0233411 0.000525823 0)
(-0.0235134 0.000471528 0)
(-0.0236664 0.000415878 0)
(-0.0237995 0.000358937 0)
(-0.0239123 0.000300776 0)
(-0.0240045 0.000241474 0)
(-0.0240757 0.000181114 0)
(-0.0241256 0.000119786 0)
(-0.0241538 5.75846e-05 0)
(-0.0241601 -5.38695e-06 0)
(-0.0241442 -6.90211e-05 0)
(-0.024106 -0.000133204 0)
(-0.0240453 -0.000197817 0)
(-0.023962 -0.000262734 0)
(-0.0238561 -0.000327826 0)
(-0.0237275 -0.000392957 0)
(-0.0235762 -0.000457988 0)
(-0.0234024 -0.000522775 0)
(-0.0232061 -0.00058717 0)
(-0.0229876 -0.000651021 0)
(-0.022747 -0.000714176 0)
(-0.0224847 -0.000776475 0)
(-0.0222009 -0.000837762 0)
(-0.0218961 -0.000897874 0)
(-0.0215708 -0.000956651 0)
(-0.0212253 -0.00101393 0)
(-0.0208603 -0.00106955 0)
(-0.0204764 -0.00112336 0)
(-0.0200742 -0.00117518 0)
(-0.0196545 -0.00122487 0)
(-0.019218 -0.00127228 0)
(-0.0187655 -0.00131724 0)
(-0.0182979 -0.00135962 0)
(-0.0178162 -0.00139928 0)
(-0.0173212 -0.00143607 0)
(-0.0168139 -0.00146988 0)
(-0.0162955 -0.00150057 0)
(-0.015767 -0.00152804 0)
(-0.0152296 -0.00155217 0)
(-0.0146843 -0.00157287 0)
(-0.0141324 -0.00159005 0)
(-0.013575 -0.00160363 0)
(-0.0130136 -0.00161355 0)
(-0.0124492 -0.00161974 0)
(-0.0118831 -0.00162217 0)
(-0.0113167 -0.00162079 0)
(-0.0107513 -0.00161558 0)
(-0.0101881 -0.00160654 0)
(-0.00962849 -0.00159367 0)
(-0.00907374 -0.00157697 0)
(-0.00852513 -0.00155649 0)
(-0.00798397 -0.00153226 0)
(-0.0074515 -0.00150434 0)
(-0.00692897 -0.00147279 0)
(-0.0064176 -0.0014377 0)
(-0.00591857 -0.00139917 0)
(-0.00543303 -0.0013573 0)
(-0.0049621 -0.00131221 0)
(-0.00450683 -0.00126404 0)
(-0.00406825 -0.00121295 0)
(-0.00364731 -0.00115909 0)
(-0.00324492 -0.00110264 0)
(-0.00286191 -0.0010438 0)
(-0.00249905 -0.000982773 0)
(-0.00215704 -0.00091978 0)
(-0.00183649 -0.000855061 0)
(-0.00153792 -0.000788871 0)
(-0.00126178 -0.000721484 0)
(-0.00100841 -0.000653193 0)
(-0.00077803 -0.000584314 0)
(-0.000570772 -0.000515187 0)
(-0.000386636 -0.000446178 0)
(-0.000225493 -0.000377687 0)
(-8.70782e-05 -0.000310148 0)
(2.90244e-05 -0.000244037 0)
(0.000123392 -0.000179878 0)
(0.000196778 -0.000118253 0)
(0.000250123 -5.98085e-05 0)
(0.000284574 -5.26712e-06 0)
(0.0003015 4.45599e-05 0)
(0.000302509 8.87613e-05 0)
(0.000289464 0.000126315 0)
(0.000264503 0.00015608 0)
(0.00023005 0.000176799 0)
(0.000188832 0.000187112 0)
(0.000143903 0.000185602 0)
(9.85904e-05 0.00017088 0)
(5.64998e-05 0.000141719 0)
(2.25945e-05 9.72621e-05 0)
(4.22912e-06 3.73374e-05 0)
(2.13117e-06 -4.00938e-05 0)
(7.22818e-06 -7.98224e-05 0)
(1.06183e-05 -8.73089e-05 0)
(6.25862e-06 -6.89344e-05 0)
(-1.04169e-05 -2.98519e-05 0)
(-4.28469e-05 2.5515e-05 0)
(-9.38155e-05 9.33972e-05 0)
(-0.000165535 0.000170625 0)
(-0.000259696 0.000254554 0)
(-0.000377528 0.000342991 0)
(-0.000519863 0.000434134 0)
(-0.000687182 0.000526504 0)
(-0.000879668 0.000618902 0)
(-0.00109725 0.000710359 0)
(-0.00133963 0.000800099 0)
(-0.00160635 0.000887503 0)
(-0.00189679 0.000972089 0)
(-0.0022102 0.00105348 0)
(-0.00254576 0.0011314 0)
(-0.00290254 0.00120565 0)
(-0.00327959 0.00127607 0)
(-0.00367589 0.00134258 0)
(-0.00409039 0.00140513 0)
(-0.00452202 0.00146371 0)
(-0.00496973 0.00151833 0)
(-0.00543243 0.00156903 0)
(-0.00590904 0.00161586 0)
(-0.00639851 0.00165888 0)
(-0.00689977 0.00169819 0)
(-0.00741181 0.00173385 0)
(-0.00793358 0.00176596 0)
(-0.00846411 0.00179462 0)
(-0.00900239 0.00181991 0)
(-0.00954749 0.00184192 0)
(-0.0100984 0.00186074 0)
(-0.0106544 0.00187645 0)
(-0.0112143 0.00188915 0)
(-0.0117775 0.00189889 0)
(-0.0123429 0.00190576 0)
(-0.0129098 0.00190982 0)
(-0.0134774 0.00191113 0)
(-0.0140448 0.00190974 0)
(-0.0146112 0.00190569 0)
(-0.0151759 0.00189904 0)
(-0.015738 0.00188982 0)
(-0.0162968 0.00187806 0)
(-0.0168516 0.00186378 0)
(-0.0174016 0.00184701 0)
(-0.017946 0.00182776 0)
(-0.0184841 0.00180605 0)
(-0.0190152 0.00178189 0)
(-0.0195385 0.00175529 0)
(-0.0200533 0.00172624 0)
(-0.0205589 0.00169477 0)
(-0.0210546 0.00166086 0)
(-0.0215396 0.00162452 0)
(-0.0220132 0.00158575 0)
(-0.0224747 0.00154456 0)
(-0.0229233 0.00150094 0)
(-0.0233585 0.00145492 0)
(-0.0237794 0.00140649 0)
(-0.0241854 0.00135567 0)
(-0.0245757 0.00130247 0)
(-0.0249497 0.00124691 0)
(-0.0253067 0.00118902 0)
(-0.0256461 0.00112882 0)
(-0.0259671 0.00106635 0)
(-0.0262691 0.00100165 0)
(-0.0265516 0.000934765 0)
(-0.0268138 0.000865752 0)
(-0.0270551 0.000794669 0)
(-0.0272751 0.000721583 0)
(-0.0274732 0.000646571 0)
(-0.0276487 0.000569716 0)
(-0.0278013 0.000491108 0)
(-0.0279304 0.000410847 0)
(-0.0280356 0.000329041 0)