/*--------------------------------*- C++ -*----------------------------------*\
| =========                 |                                                 |
| \\      /  F ield         | OpenFOAM: The Open Source CFD Toolbox           |
|  \\    /   O peration     | Version:  2.1.1                                 |
|   \\  /    A nd           | Web:      www.OpenFOAM.org                      |
|    \\/     M anipulation  |                                                 |
\*---------------------------------------------------------------------------*/
FoamFile
{
    version     2.0;
    format      ascii;
    class       volScalarField;
    location    "1";
    object      p;
}
// * * * * * * * * * * * * * * * * * * * * * * * * * * * * * * * * * * * * * //

dimensions      [0 2 -2 0 0 0 0];

internalField   nonuniform List<scalar> 
25921
(
4.98988e-09
1.19179e-05
1.29245e-05
-2.27335e-06
-3.41213e-05
-8.17796e-05
-0.000143695
-0.000217997
-0.000302773
-0.00039619
-0.000496543
-0.00060227
-0.000711957
-0.000824326
-0.000938231
-0.00105265
-0.00116667
-0.00127948
-0.00139037
-0.00149869
-0.0016039
-0.00170549
-0.00180305
-0.00189619
-0.00198459
-0.00206797
-0.00214609
-0.00221874
-0.00228574
-0.00234695
-0.00240223
-0.00245149
-0.00249462
-0.00253156
-0.00256225
-0.00258664
-0.00260468
-0.00261635
-0.00262161
-0.00262045
-0.00261285
-0.0025988
-0.00257829
-0.00255131
-0.00251787
-0.00247796
-0.00243157
-0.00237873
-0.00231942
-0.00225367
-0.00218149
-0.00210289
-0.0020179
-0.00192653
-0.00182883
-0.00172483
-0.00161457
-0.00149811
-0.00137551
-0.00124682
-0.00111214
-0.000971544
-0.000825136
-0.000673025
-0.000515331
-0.000352191
-0.00018375
-1.0172e-05
0.000168369
0.000351681
0.00053956
0.000731785
0.00092812
0.00112831
0.00133209
0.00153918
0.00174928
0.00196207
0.00217722
0.00239438
0.00261321
0.00283331
0.00305432
0.00327582
0.00349741
0.00371866
0.00393914
0.00415841
0.00437603
0.00459153
0.00480446
0.00501436
0.00522076
0.0054232
0.0056212
0.00581432
0.0060021
0.00618408
0.00635983
0.00652892
0.00669093
0.00684545
0.00699211
0.00713052
0.00726035
0.00738126
0.00749295
0.00759514
0.00768758
0.00777004
0.00784233
0.00790429
0.00795578
0.00799671
0.00802701
0.00804666
0.00805567
0.00805408
0.00804198
0.00801949
0.00798676
0.007944
0.00789144
0.00782936
0.00775807
0.00767792
0.00758929
0.00749262
0.00738834
0.00727697
0.00715903
0.00703508
0.00690571
0.00677154
0.00663325
0.00649149
0.00634701
0.00620052
0.00605281
0.00590467
0.00575691
0.00561039
0.00546598
0.00532457
0.00518708
0.00505445
0.00492763
0.00480762
0.0046954
0.00459198
0.00449836
0.00441554
0.00434448
0.00428607
0.00424107
0.00420999
0.00419293
0.00418924
0.00419702
0.00421242
0.00422828
-1.18993e-05
2.29532e-08
-1.29674e-06
-1.72694e-05
-4.71095e-05
-9.03373e-05
-0.000145963
-0.000212616
-0.000288801
-0.000373025
-0.000463843
-0.000559892
-0.00065991
-0.000762736
-0.000867313
-0.000972685
-0.00107799
-0.00118245
-0.00128537
-0.00138614
-0.00148421
-0.00157909
-0.00167036
-0.00175763
-0.00184058
-0.00191891
-0.00199238
-0.00206077
-0.00212389
-0.00218158
-0.0022337
-0.00228013
-0.00232078
-0.00235556
-0.00238439
-0.00240723
-0.00242401
-0.0024347
-0.00243926
-0.00243767
-0.0024299
-0.00241593
-0.00239576
-0.00236937
-0.00233675
-0.0022979
-0.00225282
-0.00220152
-0.00214399
-0.00208024
-0.0020103
-0.00193417
-0.00185187
-0.00176344
-0.00166891
-0.00156831
-0.00146168
-0.00134908
-0.00123057
-0.00110622
-0.0009761
-0.000840303
-0.000698924
-0.000552073
-0.000399869
-0.000242445
-7.99466e-05
8.7469e-05
0.00025963
0.000436349
0.000617428
0.000802652
0.00099179
0.0011846
0.00138082
0.00158018
0.00178238
0.00198714
0.00219411
0.00240298
0.0026134
0.00282501
0.00303743
0.00325028
0.00346318
0.00367571
0.00388746
0.00409801
0.00430692
0.00451378
0.00471813
0.00491953
0.00511755
0.00531173
0.00550165
0.00568685
0.0058669
0.00604139
0.00620989
0.00637199
0.00652729
0.00667543
0.00681602
0.00694872
0.0070732
0.00718915
0.00729629
0.00739435
0.0074831
0.00756233
0.00763185
0.00769151
0.0077412
0.00778083
0.00781034
0.00782972
0.00783897
0.00783814
0.00782733
0.00780665
0.00777626
0.00773635
0.00768716
0.00762895
0.00756202
0.00748672
0.00740342
0.00731252
0.00721447
0.00710974
0.00699885
0.00688232
0.00676073
0.00663469
0.0065048
0.00637174
0.00623619
0.00609884
0.00596043
0.00582173
0.0056835
0.00554655
0.00541169
0.00527977
0.00515164
0.00502818
0.00491026
0.00479878
0.00469465
0.00459873
0.00451192
0.00443505
0.0043689
0.00431414
0.0042713
0.00424065
0.00422209
0.00421488
0.0042175
0.00422828
0.00424413
-1.29215e-05
1.35733e-06
3.61252e-08
-1.58382e-05
-4.42232e-05
-8.45605e-05
-0.000136036
-0.000197503
-0.00026771
-0.000345382
-0.000429262
-0.000518145
-0.000610894
-0.000706453
-0.000803843
-0.000902174
-0.00100063
-0.00109848
-0.00119506
-0.00128976
-0.00138207
-0.00147149
-0.00155762
-0.00164008
-0.00171853
-0.00179268
-0.00186229
-0.00192712
-0.001987
-0.00204173
-0.00209119
-0.00213525
-0.0021738
-0.00220674
-0.00223401
-0.00225553
-0.00227124
-0.00228111
-0.00228508
-0.00228313
-0.00227524
-0.00226136
-0.0022415
-0.00221563
-0.00218374
-0.00214584
-0.00210191
-0.00205195
-0.00199598
-0.00193399
-0.001866
-0.00179203
-0.00171209
-0.00162621
-0.00153443
-0.00143677
-0.00133329
-0.00122404
-0.00110907
-0.000988457
-0.000862271
-0.0007306
-0.000593541
-0.0004512
-0.000303696
-0.000151159
6.26934e-06
0.000168434
0.000335167
0.000506287
0.000681599
0.000860893
0.00104395
0.00123052
0.00142037
0.00161322
0.0018088
0.0020068
0.00220692
0.00240885
0.00261224
0.00281675
0.00302201
0.00322767
0.00343333
0.00363861
0.00384311
0.00404642
0.00424814
0.00444783
0.00464509
0.00483948
0.00503058
0.00521796
0.00540121
0.00557989
0.0057536
0.00592192
0.00608446
0.00624082
0.00639063
0.00653352
0.00666914
0.00679716
0.00691726
0.00702915
0.00713255
0.00722723
0.00731295
0.00738951
0.00745675
0.00751453
0.00756273
0.00760127
0.0076301
0.00764922
0.00765863
0.00765839
0.00764858
0.00762933
0.00760079
0.00756315
0.00751664
0.00746152
0.00739808
0.00732666
0.00724761
0.00716134
0.00706826
0.00696885
0.00686359
0.006753
0.00663763
0.00651807
0.0063949
0.00626877
0.00614033
0.00601025
0.00587924
0.00574802
0.00561733
0.00548792
0.00536059
0.00523611
0.0051153
0.00499896
0.00488793
0.00478302
0.00468505
0.00459482
0.00451311
0.00444066
0.00437813
0.00432607
0.00428491
0.00425486
0.00423584
0.00422729
0.00422823
0.00423904
0.00425954
2.27127e-06
1.73618e-05
1.59095e-05
-1.09481e-08
-2.76727e-05
-6.63471e-05
-0.000115231
-0.000173273
-0.000239353
-0.000312345
-0.000391125
-0.000474616
-0.000561787
-0.000651672
-0.000743369
-0.00083605
-0.000928951
-0.00102138
-0.0011127
-0.00120235
-0.00128981
-0.00137462
-0.00145637
-0.0015347
-0.00160928
-0.00167982
-0.00174607
-0.0018078
-0.00186483
-0.00191697
-0.00196409
-0.00200605
-0.00204274
-0.00207406
-0.00209994
-0.00212029
-0.00213506
-0.00214421
-0.00214767
-0.00214542
-0.00213743
-0.00212366
-0.0021041
-0.00207873
-0.00204754
-0.00201052
-0.00196767
-0.00191898
-0.00186445
-0.00180409
-0.00173791
-0.00166593
-0.00158817
-0.00150465
-0.00141539
-0.00132045
-0.00121986
-0.00111366
-0.00100193
-0.000884728
-0.000762123
-0.000634204
-0.000501065
-0.000362811
-0.000219557
-7.14307e-05
8.1429e-05
0.000238871
0.000400731
0.000566833
0.000736986
0.000910986
0.00108862
0.00126965
0.00145383
0.00164091
0.00183061
0.00202265
0.00221673
0.00241254
0.00260975
0.00280802
0.00300701
0.00320636
0.00340569
0.00360465
0.00380282
0.00399984
0.00419528
0.00438876
0.00457986
0.00476817
0.00495328
0.00513478
0.00531226
0.00548532
0.00565355
0.00581656
0.00597397
0.00612539
0.00627047
0.00640885
0.00654019
0.00666419
0.00678052
0.00688892
0.00698912
0.00708088
0.00716399
0.00723826
0.00730353
0.00735967
0.00740656
0.00744415
0.00747237
0.00749123
0.00750074
0.00750095
0.00749195
0.00747386
0.00744684
0.00741107
0.00736678
0.00731422
0.00725368
0.00718547
0.00710996
0.00702753
0.0069386
0.0068436
0.00674303
0.00663738
0.00652718
0.00641299
0.0062954
0.00617501
0.00605246
0.00592839
0.00580347
0.00567841
0.0055539
0.00543068
0.00530948
0.00519104
0.00507614
0.00496554
0.00486
0.00476029
0.00466717
0.00458137
0.0045036
0.00443452
0.00437473
0.00432475
0.00428495
0.0042556
0.00423674
0.00422807
0.00422909
0.0042417
0.00426741
3.42039e-05
4.73161e-05
4.43433e-05
2.75554e-05
-2.10446e-07
-3.81277e-05
-8.53935e-05
-0.000141027
-0.000204015
-0.000273344
-0.000348013
-0.000427049
-0.000509522
-0.00059455
-0.000681306
-0.000769024
-0.000856994
-0.000944565
-0.00103114
-0.00111619
-0.00119921
-0.00127977
-0.00135747
-0.00143196
-0.00150291
-0.00157006
-0.00163314
-0.00169195
-0.00174627
-0.00179595
-0.00184083
-0.00188079
-0.0019157
-0.00194547
-0.00197002
-0.00198926
-0.00200314
-0.0020116
-0.00201459
-0.00201207
-0.00200401
-0.00199037
-0.00197114
-0.0019463
-0.00191582
-0.0018797
-0.00183794
-0.00179052
-0.00173744
-0.00167872
-0.00161436
-0.00154438
-0.00146879
-0.00138761
-0.00130088
-0.00120863
-0.00111091
-0.00100775
-0.000899225
-0.000785391
-0.000666321
-0.0005421
-0.000412819
-0.00027858
-0.000139495
4.31044e-06
0.000152702
0.000305533
0.000462642
0.000623859
0.000788998
0.000957861
0.00113024
0.0013059
0.00148461
0.00166613
0.00185017
0.00203648
0.00222475
0.00241469
0.00260597
0.00279828
0.00299127
0.0031846
0.00337792
0.00357084
0.00376301
0.00395404
0.00414354
0.00433113
0.0045164
0.00469896
0.00487842
0.00505437
0.00522642
0.00539418
0.00555725
0.00571527
0.00586785
0.00601463
0.00615526
0.00628941
0.00641675
0.00653696
0.00664976
0.00675488
0.00685207
0.0069411
0.00702176
0.00709387
0.00715728
0.00721187
0.00725752
0.00729419
0.00732181
0.00734039
0.00734995
0.00735054
0.00734225
0.0073252
0.00729955
0.00726546
0.00722318
0.00717293
0.00711501
0.00704973
0.00697743
0.00689849
0.00681332
0.00672234
0.00662602
0.00652485
0.00641935
0.00631004
0.0061975
0.00608232
0.00596509
0.00584644
0.00572703
0.00560751
0.00548855
0.00537086
0.00525513
0.00514208
0.00503241
0.00492686
0.00482614
0.00473096
0.00464203
0.00456003
0.0044856
0.00441936
0.00436187
0.00431361
0.00427497
0.00424627
0.0042277
0.00421915
0.00422051
0.00423463
0.00426401
8.21508e-05
9.08282e-05
8.48526e-05
6.62007e-05
3.74051e-05
-6.82181e-07
-4.72721e-05
-0.000101456
-0.000162313
-0.000228932
-0.000300413
-0.000375882
-0.000454496
-0.000535455
-0.000618004
-0.000701437
-0.000785099
-0.000868384
-0.000950737
-0.00103165
-0.00111066
-0.00118735
-0.00126134
-0.00133229
-0.0013999
-0.00146389
-0.00152403
-0.00158009
-0.00163188
-0.00167924
-0.00172202
-0.00176009
-0.00179332
-0.00182163
-0.00184493
-0.00186313
-0.00187617
-0.001884
-0.00188656
-0.00188381
-0.00187571
-0.00186224
-0.00184337
-0.00181906
-0.00178932
-0.00175412
-0.00171345
-0.00166731
-0.0016157
-0.00155862
-0.00149607
-0.00142808
-0.00135464
-0.0012758
-0.00119157
-0.00110199
-0.00100709
-0.00090693
-0.000801558
-0.000691037
-0.000575439
-0.000454842
-0.000329336
-0.00019902
-6.40023e-05
7.55956e-05
0.000219643
0.000367996
0.000520501
0.000676991
0.000837285
0.00100119
0.00116851
0.00133901
0.00151247
0.00168865
0.00186728
0.0020481
0.00223083
0.00241517
0.00260082
0.00278746
0.00297477
0.0031624
0.00335
0.00353724
0.00372373
0.00390912
0.00409303
0.00427507
0.00445487
0.00463204
0.00480619
0.00497694
0.00514391
0.00530671
0.00546497
0.00561832
0.0057664
0.00590886
0.00604535
0.00617556
0.00629916
0.00641586
0.00652538
0.00662745
0.00672184
0.00680831
0.00688669
0.00695678
0.00701846
0.00707158
0.00711607
0.00715185
0.00717889
0.00719718
0.00720675
0.00720765
0.00719997
0.00718383
0.00715938
0.00712679
0.00708629
0.00703811
0.00698254
0.00691988
0.00685046
0.00677466
0.00669286
0.00660549
0.00651299
0.00641584
0.00631454
0.00620961
0.00610159
0.00599105
0.00587857
0.00576477
0.00565024
0.00553564
0.00542161
0.0053088
0.00519789
0.00508954
0.00498444
0.00488327
0.0047867
0.0046954
0.00461002
0.0045312
0.00445954
0.00439563
0.00433998
0.00429307
0.00425531
0.00422706
0.00420863
0.00420008
0.00420155
0.00421638
0.00424751
0.000144694
0.000147012
0.000136707
0.000115197
8.4441e-05
4.52699e-05
-1.55597e-06
-5.52056e-05
-0.000114847
-0.00017966
-0.000248837
-0.000321589
-0.000397159
-0.00047482
-0.000553885
-0.00063371
-0.000713691
-0.00079327
-0.00087193
-0.000949197
-0.00102464
-0.00109786
-0.00116851
-0.00123626
-0.00130082
-0.00136192
-0.00141935
-0.00147288
-0.00152234
-0.00156755
-0.00160837
-0.00164468
-0.00167636
-0.00170331
-0.00172545
-0.00174269
-0.00175496
-0.00176222
-0.00176441
-0.00176147
-0.00175339
-0.00174011
-0.00172162
-0.00169788
-0.00166889
-0.00163461
-0.00159505
-0.0015502
-0.00150005
-0.0014446
-0.00138385
-0.00131783
-0.00124653
-0.00116999
-0.00108822
-0.00100126
-0.000909144
-0.00081192
-0.000709637
-0.000602355
-0.000490143
-0.000373076
-0.000251241
-0.000124733
6.34287e-06
0.000141869
0.00028172
0.000425757
0.000573829
0.000725775
0.000881421
0.00104058
0.00120305
0.00136863
0.00153709
0.00170818
0.00188168
0.0020573
0.00223478
0.00241383
0.00259416
0.00277546
0.00295741
0.00313968
0.00332194
0.00350384
0.00368503
0.00386515
0.00404383
0.00422071
0.00439542
0.00456757
0.0047368
0.00490273
0.00506499
0.0052232
0.00537701
0.00552605
0.00566998
0.00580845
0.00594113
0.00606771
0.00618787
0.00630134
0.00640783
0.0065071
0.0065989
0.00668303
0.0067593
0.00682753
0.0068876
0.00693937
0.00698276
0.0070177
0.00704418
0.00706217
0.00707171
0.00707285
0.00706568
0.00705032
0.00702691
0.00699563
0.00695669
0.00691034
0.00685683
0.00679648
0.0067296
0.00665656
0.00657774
0.00649354
0.00640441
0.00631081
0.00621321
0.00611213
0.00600809
0.00590163
0.00579333
0.00568375
0.0055735
0.00546319
0.00535342
0.00524484
0.00513807
0.00503377
0.00493256
0.00483509
0.00474201
0.00465392
0.00457146
0.00449522
0.00442576
0.00436364
0.00430935
0.00426338
0.00422613
0.00419803
0.00417945
0.00417057
0.00417166
0.00418625
0.00421733
0.000220108
0.000214607
0.000198851
0.000173568
0.000139987
9.8886e-05
5.09899e-05
-2.95577e-06
-6.22066e-05
-0.000126027
-0.000193694
-0.0002645
-0.000337764
-0.000412831
-0.000489079
-0.00056592
-0.000642804
-0.000719218
-0.000794686
-0.000868771
-0.000941069
-0.00101121
-0.00107887
-0.00114373
-0.00120553
-0.00126402
-0.00131897
-0.00137019
-0.00141749
-0.00146073
-0.00149976
-0.00153445
-0.0015647
-0.0015904
-0.00161147
-0.00162783
-0.00163942
-0.00164617
-0.00164804
-0.00164498
-0.00163694
-0.0016239
-0.00160582
-0.00158268
-0.00155446
-0.00152113
-0.00148269
-0.00143913
-0.00139044
-0.00133661
-0.00127766
-0.00121359
-0.00114441
-0.00107014
-0.000990804
-0.000906427
-0.000817046
-0.000722702
-0.000623444
-0.00051933
-0.000410422
-0.000296796
-0.000178532
-5.57219e-05
7.15321e-05
0.000203118
0.000338915
0.000478788
0.000622592
0.000770172
0.000921358
0.00107597
0.00123382
0.00139469
0.00155838
0.00172465
0.00189326
0.00206395
0.00223647
0.00241052
0.00258584
0.00276211
0.00293902
0.00311627
0.00329351
0.00347042
0.00364665
0.00382186
0.00399568
0.00416775
0.00433773
0.00450523
0.0046699
0.00483137
0.00498928
0.00514326
0.00529297
0.00543804
0.00557815
0.00571295
0.00584213
0.00596538
0.00608239
0.00619289
0.0062966
0.0063933
0.00648274
0.00656471
0.00663904
0.00670557
0.00676414
0.00681466
0.00685703
0.00689119
0.00691712
0.00693481
0.00694429
0.00694561
0.00693886
0.00692415
0.00690163
0.00687148
0.0068339
0.00678913
0.00673742
0.00667908
0.00661443
0.0065438
0.00646758
0.00638617
0.00629998
0.00620948
0.00611511
0.00601739
0.00591681
0.0058139
0.00570921
0.0056033
0.00549674
0.00539011
0.005284
0.00517902
0.00507578
0.00497488
0.00487693
0.00478254
0.00469232
0.00460684
0.00452671
0.00445247
0.00438467
0.00432382
0.00427043
0.00422495
0.00418782
0.00415948
0.00414034
0.00413066
0.00413078
0.00414415
0.00417361
0.000306621
0.000292225
0.000270119
0.000240269
0.000203091
0.000159303
0.000109588
5.46022e-05
-4.99572e-06
-6.85519e-05
-0.000135422
-0.000204976
-0.000276603
-0.000349716
-0.000423754
-0.000498187
-0.000572514
-0.000646268
-0.000719014
-0.00079035
-0.000859906
-0.000927342
-0.000992346
-0.00105464
-0.00111396
-0.00117008
-0.00122279
-0.00127191
-0.00131726
-0.00135869
-0.00139608
-0.00142929
-0.00145823
-0.00148279
-0.0015029
-0.00151848
-0.00152946
-0.00153578
-0.0015374
-0.00153426
-0.00152633
-0.00151356
-0.00149594
-0.00147342
-0.00144599
-0.00141363
-0.00137633
-0.00133407
-0.00128684
-0.00123465
-0.00117748
-0.00111536
-0.00104827
-0.000976255
-0.000899317
-0.000817486
-0.000730794
-0.000639279
-0.000542987
-0.000441972
-0.000336293
-0.000226021
-0.000111233
7.98355e-06
0.000131531
0.000259303
0.000391181
0.000527037
0.000666731
0.000810114
0.000957021
0.00110728
0.0012607
0.00141709
0.00157623
0.00173791
0.00190188
0.00206791
0.00223573
0.00240507
0.00257566
0.0027472
0.00291939
0.00309192
0.00326447
0.00343672
0.00360833
0.00377896
0.00394825
0.00411588
0.00428147
0.00444467
0.00460512
0.00476248
0.00491638
0.00506647
0.0052124
0.00535384
0.00549044
0.00562189
0.00574786
0.00586806
0.00598219
0.00608998
0.00619117
0.00628551
0.00637279
0.0064528
0.00652537
0.00659032
0.00664753
0.00669689
0.00673832
0.00677175
0.00679716
0.00681454
0.00682393
0.00682537
0.00681896
0.0068048
0.00678304
0.00675385
0.00671743
0.00667402
0.00662387
0.00656727
0.00650454
0.006436
0.00636204
0.00628303
0.00619939
0.00611155
0.00601998
0.00592515
0.00582755
0.00572769
0.00562609
0.00552331
0.00541988
0.00531637
0.00521336
0.0051114
0.00501109
0.00491301
0.00481773
0.00472583
0.00463788
0.00455445
0.00447607
0.0044033
0.00433664
0.00427658
0.00422362
0.00417819
0.00414074
0.00411172
0.00409157
0.00408056
0.00407908
0.00409033
0.00411687
0.000402532
0.000378474
0.000349311
0.000314232
0.000272793
0.000225654
0.000173456
0.000116769
5.6165e-05
-7.77896e-06
-7.44937e-05
-0.000143421
-0.000214018
-0.00028576
-0.000358146
-0.0004307
-0.000502971
-0.000574536
-0.000645001
-0.000714001
-0.000781196
-0.000846275
-0.000908954
-0.000968972
-0.00102609
-0.0010801
-0.00113081
-0.00117803
-0.00122161
-0.00126142
-0.00129731
-0.00132919
-0.00135695
-0.00138049
-0.00139975
-0.00141463
-0.00142509
-0.00143106
-0.0014325
-0.00142934
-0.00142157
-0.00140913
-0.00139199
-0.00137014
-0.00134354
-0.00131217
-0.00127602
-0.00123508
-0.00118932
-0.00113876
-0.00108338
-0.00102319
-0.000958191
-0.000888401
-0.000813835
-0.000734515
-0.00065047
-0.000561735
-0.000468352
-0.00037037
-0.000267847
-0.000160846
-4.94419e-05
6.62823e-05
0.000186234
0.000310313
0.000438404
0.000570386
0.000706124
0.000845473
0.000988276
0.00113437
0.00128356
0.00143567
0.00159049
0.0017478
0.00190738
0.00206899
0.00223238
0.00239727
0.00256341
0.00273051
0.00289827
0.00306639
0.00323457
0.00340247
0.00356978
0.00373616
0.00390127
0.00406476
0.00422631
0.00438554
0.00454212
0.00469569
0.00484592
0.00499244
0.00513492
0.00527303
0.00540644
0.00553483
0.00565789
0.00577532
0.00588683
0.00599216
0.00609106
0.00618327
0.0062686
0.00634682
0.00641778
0.00648131
0.00653729
0.00658559
0.00662615
0.0066589
0.00668382
0.00670091
0.00671018
0.0067117
0.00670555
0.00669184
0.00667071
0.00664234
0.00660691
0.00656465
0.00651583
0.00646071
0.00639962
0.00633287
0.00626082
0.00618386
0.00610239
0.00601684
0.00592763
0.00583525
0.00574017
0.00564288
0.00554389
0.00544373
0.00534292
0.005242
0.00514153
0.00504205
0.00494412
0.00484829
0.00475512
0.00466516
0.00457894
0.004497
0.00441987
0.00434804
0.00428202
0.00422228
0.00416928
0.00412346
0.00408525
0.00405511
0.00403346
0.0040206
0.00401692
0.00402526
0.00404782
0.000506251
0.00047199
0.000435234
0.000394388
0.00034813
0.000297067
0.000241809
0.000182838
0.000120645
5.57326e-05
-1.14004e-05
-8.02635e-05
-0.000150378
-0.00022128
-0.000292524
-0.000363686
-0.000434364
-0.000504178
-0.000572774
-0.000639823
-0.000705018
-0.000768078
-0.000828743
-0.000886777
-0.000941964
-0.000994106
-0.00104303
-0.00108856
-0.00113057
-0.00116892
-0.00120349
-0.00123418
-0.00126089
-0.00128353
-0.00130204
-0.00131633
-0.00132636
-0.00133206
-0.00133338
-0.00133028
-0.00132271
-0.00131065
-0.00129406
-0.00127291
-0.00124717
-0.00121682
-0.00118185
-0.00114224
-0.00109797
-0.00104904
-0.000995444
-0.000937181
-0.000874256
-0.000806677
-0.000734458
-0.000657618
-0.000576181
-0.00049018
-0.000399651
-0.00030464
-0.000205201
-0.000101392
6.71661e-06
0.000119047
0.000235511
0.000356013
0.000480445
0.00060869
0.000740619
0.000876093
0.00101496
0.00115706
0.00130222
0.00145025
0.00160096
0.00175414
0.00190955
0.00206699
0.00222619
0.0023869
0.00254886
0.0027118
0.00287542
0.00303942
0.00320352
0.00336738
0.0035307
0.00369315
0.00385439
0.00401408
0.0041719
0.00432749
0.00448052
0.00463064
0.0047775
0.00492077
0.00506012
0.00519521
0.00532573
0.00545135
0.00557177
0.0056867
0.00579585
0.00589897
0.0059958
0.00608611
0.00616967
0.0062463
0.00631582
0.00637807
0.00643293
0.00648028
0.00652005
0.00655219
0.00657665
0.00659345
0.0066026
0.00660416
0.00659821
0.00658486
0.00656425
0.00653655
0.00650194
0.00646066
0.00641294
0.00635908
0.00629935
0.0062341
0.00616367
0.00608843
0.00600877
0.00592512
0.00583789
0.00574755
0.00565455
0.00555938
0.00546254
0.00536451
0.00526583
0.005167
0.00506856
0.00497104
0.00487497
0.00478087
0.00468928
0.00460073
0.00451572
0.00443477
0.00435837
0.00428701
0.00422115
0.00416126
0.00410777
0.00406112
0.00402172
0.00399
0.00396639
0.00395118
0.00394475
0.0039495
0.00396725
0.000616304
0.000571476
0.000526727
0.000479685
0.000428147
0.000372679
0.000313863
0.000252101
0.000187807
0.000121413
5.33512e-05
-1.59513e-05
-8.60764e-05
-0.000156618
-0.000227184
-0.0002974
-0.00036691
-0.000435379
-0.00050249
-0.00056795
-0.000631486
-0.000692845
-0.000751794
-0.000808121
-0.00086163
-0.000912145
-0.000959502
-0.00100356
-0.00104418
-0.00108124
-0.00111465
-0.00114429
-0.00117008
-0.00119195
-0.00120982
-0.00122363
-0.00123331
-0.00123882
-0.00124011
-0.00123713
-0.00122984
-0.00121822
-0.00120221
-0.0011818
-0.00115696
-0.00112767
-0.0010939
-0.00105564
-0.00101287
-0.000965589
-0.000913781
-0.000857445
-0.000796583
-0.0007312
-0.000661305
-0.000586916
-0.000508051
-0.00042474
-0.000337014
-0.000244916
-0.000148492
-4.77994e-05
5.70984e-05
0.000166128
0.000279208
0.000396247
0.000517143
0.000641783
0.000770047
0.000901799
0.0010369
0.00117518
0.00131649
0.00146064
0.00160744
0.00175669
0.00190817
0.00206166
0.00221692
0.0023737
0.00253175
0.00269079
0.00285054
0.00301072
0.00317102
0.00333115
0.00349078
0.00364959
0.00380727
0.00396348
0.00411789
0.00427015
0.00441994
0.00456691
0.00471073
0.00485106
0.00498757
0.00511994
0.00524785
0.00537099
0.00548904
0.00560174
0.00570879
0.00580994
0.00590493
0.00599354
0.00607554
0.00615075
0.00621899
0.00628011
0.00633398
0.00638049
0.00641956
0.00645113
0.00647519
0.00649171
0.00650073
0.0065023
0.00649651
0.00648344
0.00646325
0.0064361
0.00640217
0.00636168
0.00631488
0.00626204
0.00620345
0.00613943
0.00607032
0.00599649
0.00591832
0.00583621
0.00575059
0.00566189
0.00557058
0.00547711
0.00538196
0.00528563
0.0051886
0.00509139
0.00499451
0.00489845
0.00480374
0.00471088
0.00462038
0.00453274
0.00444845
0.00436799
0.00429185
0.00422049
0.00415434
0.00409386
0.00403945
0.00399154
0.00395052
0.0039168
0.00389078
0.00387276
0.00386309
0.00386371
0.00387598
0.000731336
0.000675706
0.000622676
0.000569104
0.000511912
0.000451636
0.00038884
0.000323851
0.00025701
0.000188684
0.000119242
4.90522e-05
-2.15255e-05
-9.21388e-05
-0.000162447
-0.000232124
-0.000300858
-0.000368354
-0.000434337
-0.000498546
-0.000560742
-0.000620701
-0.000678217
-0.000733101
-0.000785181
-0.000834298
-0.000880308
-0.000923081
-0.000962498
-0.000998452
-0.00103084
-0.00105959
-0.00108461
-0.00110582
-0.00112317
-0.00113659
-0.00114603
-0.00115144
-0.00115277
-0.00114999
-0.00114304
-0.00113191
-0.00111655
-0.00109693
-0.00107303
-0.00104483
-0.00101229
-0.000975407
-0.000934158
-0.000888532
-0.000838518
-0.000784109
-0.000725304
-0.000662104
-0.000594516
-0.000522551
-0.000446226
-0.000365564
-0.000280594
-0.000191352
-9.78809e-05
-2.31813e-07
0.000101536
0.000207356
0.000317151
0.000430835
0.000548312
0.000669476
0.00079421
0.000922388
0.00105387
0.00118851
0.00132614
0.00146659
0.00160968
0.00175521
0.00190297
0.00205275
0.00220431
0.0023574
0.00251178
0.00266719
0.00282334
0.00297996
0.00313676
0.00329343
0.00344966
0.00360515
0.00375957
0.00391259
0.00406389
0.00421313
0.00435998
0.00450411
0.00464519
0.00478288
0.00491685
0.00504679
0.00517237
0.0052933
0.00540926
0.00551998
0.00562518
0.00572459
0.00581797
0.00590509
0.00598573
0.0060597
0.00612683
0.00618696
0.00623996
0.00628574
0.0063242
0.00635529
0.00637897
0.00639525
0.00640415
0.00640572
0.00640003
0.00638719
0.00636733
0.00634062
0.00630723
0.00626738
0.00622132
0.0061693
0.00611161
0.00604858
0.00598053
0.00590781
0.00583081
0.00574993
0.00566556
0.00557815
0.00548813
0.00539596
0.0053021
0.00520703
0.00511124
0.0050152
0.0049194
0.00482435
0.00473054
0.00463844
0.00454856
0.00446136
0.00437733
0.00429692
0.00422058
0.00414877
0.0040819
0.0040204
0.00396466
0.00391508
0.00387203
0.00383591
0.00380708
0.00378583
0.00377249
0.00376852
0.00377479
0.0008501
0.000783532
0.000722019
0.000661662
0.000598519
0.000533105
0.000465975
0.000397387
0.000327614
0.000256963
0.000185745
0.00011427
4.28461e-05
-2.82271e-05
-9.86573e-05
-0.000168164
-0.000236478
-0.000303347
-0.00036853
-0.000431804
-0.000492958
-0.0005518
-0.000608151
-0.000661845
-0.000712731
-0.000760673
-0.000805543
-0.000847228
-0.000885623
-0.000920634
-0.000952174
-0.000980166
-0.00100454
-0.00102522
-0.00104217
-0.00105531
-0.00106461
-0.00107001
-0.00107147
-0.00106896
-0.00106243
-0.00105185
-0.00103718
-0.00101841
-0.000995498
-0.000968418
-0.00093715
-0.000901671
-0.000861963
-0.00081801
-0.0007698
-0.000717323
-0.000660572
-0.000599547
-0.00053425
-0.000464687
-0.000390872
-0.000312823
-0.000230564
-0.000144126
-5.35477e-05
4.11262e-05
0.000139842
0.000242537
0.000349141
0.000459573
0.000573745
0.000691555
0.000812893
0.000937638
0.00106566
0.00119681
0.00133094
0.00146788
0.00160744
0.00174946
0.00189371
0.00203998
0.00218806
0.0023377
0.00248867
0.00264069
0.00279351
0.00294684
0.00310039
0.00325388
0.00340701
0.00355945
0.00371089
0.00386102
0.00400951
0.00415602
0.00430024
0.00444182
0.00458045
0.00471578
0.00484751
0.00497529
0.00509884
0.00521782
0.00533196
0.00544096
0.00554454
0.00564245
0.00573444
0.00582028
0.00589975
0.00597267
0.00603885
0.00609814
0.00615042
0.00619557
0.00623351
0.00626419
0.00628757
0.00630364
0.00631243
0.00631399
0.00630838
0.00629571
0.00627611
0.00624974
0.00621678
0.00617743
0.00613194
0.00608056
0.00602358
0.0059613
0.00589405
0.00582219
0.00574607
0.0056661
0.00558266
0.00549619
0.00540711
0.00531586
0.00522291
0.0051287
0.00503372
0.00493843
0.0048433
0.00474882
0.00465546
0.00456369
0.00447397
0.00438678
0.00430256
0.00422176
0.00414481
0.00407212
0.00400412
0.00394119
0.00388373
0.00383209
0.00378664
0.00374774
0.00371572
0.00369088
0.00367352
0.00366457
0.00366446
0.00097145
0.000893879
0.000823751
0.000756421
0.000687094
0.000616276
0.000544519
0.000472017
0.000398983
0.000325667
0.000252326
0.000179217
0.000106597
3.47169e-05
-3.61768e-05
-0.000105847
-0.000174068
-0.000240624
-0.000305312
-0.00036794
-0.000428332
-0.000486323
-0.00054176
-0.000594503
-0.000644423
-0.000691403
-0.000735335
-0.00077612
-0.00081367
-0.000847904
-0.000878747
-0.00090613
-0.000929993
-0.000950279
-0.000966934
-0.00097991
-0.000989162
-0.000994647
-0.000996326
-0.000994161
-0.000988117
-0.00097816
-0.000964259
-0.000946383
-0.000924504
-0.000898594
-0.000868629
-0.000834587
-0.000796445
-0.000754185
-0.000707793
-0.000657254
-0.000602559
-0.000543703
-0.000480684
-0.000413506
-0.000342175
-0.000266706
-0.000187117
-0.000103436
-1.56934e-05
7.60694e-05
0.000171805
0.000271457
0.00037496
0.00048224
0.000593214
0.000707787
0.000825855
0.000947304
0.00107201
0.00119983
0.00133061
0.00146421
0.00160044
0.00173913
0.00188007
0.00202306
0.00216788
0.0023143
0.00246207
0.00261096
0.00276068
0.00291098
0.00306156
0.00321215
0.00336243
0.0035121
0.00366086
0.00380838
0.00395434
0.00409841
0.00424028
0.00437961
0.00451607
0.00464934
0.00477909
0.00490501
0.00502678
0.00514409
0.00525666
0.00536419
0.00546641
0.00556305
0.00565387
0.00573864
0.00581714
0.00588918
0.00595458
0.00601319
0.00606488
0.00610953
0.00614706
0.00617741
0.00620054
0.00621645
0.00622516
0.00622671
0.00622116
0.00620863
0.00618923
0.00616312
0.00613048
0.00609151
0.00604644
0.00599553
0.00593907
0.00587734
0.00581067
0.0057394
0.00566391
0.00558456
0.00550175
0.0054159
0.00532742
0.00523675
0.00514433
0.00505061
0.00495605
0.00486111
0.00476624
0.00467192
0.0045786
0.00448673
0.00439677
0.00430916
0.00422434
0.00414274
0.00406476
0.00399081
0.00392128
0.00385655
0.00379699
0.00374293
0.00369473
0.0036527
0.00361716
0.00358839
0.00356671
0.00355249
0.00354569
0.00109433
0.00100574
0.000926923
0.000852484
0.000776796
0.000700363
0.000623738
0.000547061
0.000470487
0.000394214
0.000318449
0.000243399
0.000169274
9.62793e-05
2.46162e-05
-4.55199e-05
-0.000113942
-0.000180473
-0.000244943
-0.000307197
-0.000367086
-0.000424474
-0.000479235
-0.000531253
-0.000580422
-0.000626644
-0.00066983
-0.000709899
-0.000746777
-0.000780396
-0.000810694
-0.000837614
-0.000861103
-0.000881113
-0.000897598
-0.000910516
-0.000919827
-0.000925493
-0.000927477
-0.000925746
-0.000920264
-0.000911
-0.000897923
-0.000881003
-0.00086021
-0.000835516
-0.000806896
-0.000774324
-0.000737778
-0.000697235
-0.000652676
-0.000604087
-0.000551453
-0.000494765
-0.000434016
-0.000369207
-0.000300338
-0.00022742
-0.000150466
-6.94961e-05
1.54616e-05
0.000104373
0.000197197
0.000293881
0.000394369
0.000498591
0.000606469
0.000717917
0.000832836
0.000951118
0.00107264
0.00119728
0.00132489
0.00145531
0.00158838
0.00172392
0.00186175
0.00200165
0.00214343
0.00228684
0.00243166
0.00257764
0.00272452
0.00287203
0.00301989
0.00316783
0.00331553
0.00346271
0.00360905
0.00375424
0.00389795
0.00403987
0.00417967
0.00431702
0.0044516
0.00458308
0.00471114
0.00483546
0.00495573
0.00507164
0.00518289
0.0052892
0.00539029
0.0054859
0.00557577
0.00565969
0.00573742
0.00580877
0.00587356
0.00593165
0.00598288
0.00602715
0.00606438
0.00609449
0.00611746