/*--------------------------------*- C++ -*----------------------------------*\
| =========                 |                                                 |
| \\      /  F ield         | OpenFOAM: The Open Source CFD Toolbox           |
|  \\    /   O peration     | Version:  2.1.1                                 |
|   \\  /    A nd           | Web:      www.OpenFOAM.org                      |
|    \\/     M anipulation  |                                                 |
\*---------------------------------------------------------------------------*/
FoamFile
{
    version     2.0;
    format      ascii;
    class       surfaceScalarField;
    location    "1";
    object      phi;
}
// * * * * * * * * * * * * * * * * * * * * * * * * * * * * * * * * * * * * * //

dimensions      [0 3 -1 0 0 0 0];

internalField   nonuniform List<scalar> 
51520
(
2.04699e-12
-2.04844e-12
1.06676e-11
-8.6206e-12
2.30002e-11
-1.23326e-11
3.618e-11
-1.31799e-11
4.82212e-11
-1.20411e-11
5.7786e-11
-9.56482e-12
6.39901e-11
-6.2041e-12
6.62695e-11
-2.2794e-12
6.42838e-11
1.98569e-12
5.78489e-11
6.43486e-12
4.68923e-11
1.09566e-11
3.14217e-11
1.54706e-11
1.1503e-11
1.99186e-11
-1.27549e-11
2.4258e-11
-4.12127e-11
2.84578e-11
-7.37087e-11
3.2496e-11
-1.10066e-10
3.63573e-11
-1.50097e-10
4.00312e-11
-1.93609e-10
4.35114e-11
-2.40403e-10
4.67948e-11
-2.90284e-10
4.98805e-11
-3.43053e-10
5.27696e-11
-3.98518e-10
5.54646e-11
-4.56487e-10
5.79693e-11
-5.16775e-10
6.02881e-11
-5.79202e-10
6.24261e-11
-6.43591e-10
6.43889e-11
-7.09773e-10
6.61822e-11
-7.77585e-10
6.78118e-11
-8.46868e-10
6.92839e-11
-9.17472e-10
7.06041e-11
-9.89251e-10
7.17783e-11
-1.06206e-09
7.2812e-11
-1.13577e-09
7.37104e-11
-1.21025e-09
7.44787e-11
-1.28537e-09
7.51213e-11
-1.36102e-09
7.56428e-11
-1.43706e-09
7.60472e-11
-1.5134e-09
7.6338e-11
-1.58992e-09
7.65185e-11
-1.66651e-09
7.65917e-11
-1.74307e-09
7.65602e-11
-1.8195e-09
7.64261e-11
-1.89569e-09
7.61913e-11
-1.97155e-09
7.58575e-11
-2.04697e-09
7.54258e-11
-2.12187e-09
7.48973e-11
-2.19614e-09
7.42726e-11
-2.26969e-09
7.35523e-11
-2.34243e-09
7.27367e-11
-2.41426e-09
7.18258e-11
-2.48508e-09
7.08195e-11
-2.55479e-09
6.97177e-11
-2.62331e-09
6.85201e-11
-2.69054e-09
6.72262e-11
-2.75638e-09
6.58357e-11
-2.82072e-09
6.43481e-11
-2.88349e-09
6.27631e-11
-2.94457e-09
6.10801e-11
-3.00387e-09
5.92988e-11
-3.06129e-09
5.74192e-11
-3.11673e-09
5.54409e-11
-3.17009e-09
5.33641e-11
-3.22128e-09
5.1189e-11
-3.2702e-09
4.8916e-11
-3.31674e-09
4.65456e-11
-3.36082e-09
4.40788e-11
-3.40234e-09
4.15167e-11
-3.4412e-09
3.88606e-11
-3.47731e-09
3.61124e-11
-3.51058e-09
3.32739e-11
-3.54093e-09
3.03476e-11
-3.56827e-09
2.73361e-11
-3.59251e-09
2.42426e-11
-3.61358e-09
2.10703e-11
-3.6314e-09
1.78231e-11
-3.64591e-09
1.45052e-11
-3.65703e-09
1.11211e-11
-3.6647e-09
7.67572e-12
-3.66888e-09
4.17447e-12
-3.6695e-09
6.23031e-13
-3.66653e-09
-2.9725e-12
-3.65992e-09
-6.60567e-12
-3.64965e-09
-1.02696e-11
-3.6357e-09
-1.39571e-11
-3.61804e-09
-1.76607e-11
-3.59666e-09
-2.13725e-11
-3.57158e-09
-2.50844e-11
-3.54279e-09
-2.87877e-11
-3.51032e-09
-3.2474e-11
-3.47418e-09
-3.61342e-11
-3.43442e-09
-3.9759e-11
-3.39109e-09
-4.33393e-11
-3.34422e-09
-4.68654e-11
-3.29389e-09
-5.03278e-11
-3.24018e-09
-5.37167e-11
-3.18315e-09
-5.70224e-11
-3.12292e-09
-6.02352e-11
-3.05957e-09
-6.33452e-11
-2.99323e-09
-6.6343e-11
-2.92401e-09
-6.92188e-11
-2.85205e-09
-7.19634e-11
-2.77748e-09
-7.45675e-11
-2.70046e-09
-7.70222e-11
-2.62114e-09
-7.93188e-11
-2.53969e-09
-8.14491e-11
-2.45628e-09
-8.3405e-11
-2.37111e-09
-8.51791e-11
-2.28434e-09
-8.67641e-11
-2.19619e-09
-8.81536e-11
-2.10685e-09
-8.93413e-11
-2.01652e-09
-9.03219e-11
-1.92543e-09
-9.10903e-11
-1.83379e-09
-9.16424e-11
-1.74182e-09
-9.19744e-11
-1.64973e-09
-9.20834e-11
-1.55777e-09
-9.19671e-11
-1.46614e-09
-9.16241e-11
-1.37509e-09
-9.10536e-11
-1.28483e-09
-9.02554e-11
-1.1956e-09
-8.92304e-11
-1.10762e-09
-8.79802e-11
-1.02112e-09
-8.65069e-11
-9.36303e-10
-8.48136e-11
-8.53399e-10
-8.29044e-11
-7.72615e-10
-8.07837e-11
-6.94158e-10
-7.8457e-11
-6.18228e-10
-7.59306e-11
-5.45016e-10
-7.32113e-11
-4.74709e-10
-7.03071e-11
-4.07483e-10
-6.72262e-11
-3.43505e-10
-6.39781e-11
-2.82932e-10
-6.05727e-11
-2.25911e-10
-5.70209e-11
-1.72577e-10
-5.33342e-11
-1.23052e-10
-4.95251e-11
-7.74451e-11
-4.56068e-11
-3.58516e-11
-4.15935e-11
1.64875e-12
-3.75004e-11
3.49926e-11
-3.33439e-11
6.41339e-11
-2.91413e-11
8.90455e-11
-2.49116e-11
1.09721e-10
-2.06755e-11
1.26176e-10
-1.64555e-11
1.38453e-10
-1.22766e-11
1.4662e-10
-8.16679e-12
1.50777e-10
-4.15759e-12
1.51063e-10
-2.85231e-13
1.47654e-10
3.40858e-12
1.4078e-10
6.87421e-12
1.30727e-10
1.00526e-11
1.17855e-10
1.28719e-11
1.02612e-10
1.5243e-11
8.55584e-11
1.70541e-11
6.73961e-11
1.81623e-11
4.90122e-11
1.83838e-11
3.15247e-11
1.74875e-11
1.63209e-11
1.52038e-11
5.06902e-12
1.12519e-11
-4.4854e-13
5.51756e-12
-4.48543e-13
8.62323e-12
-1.06717e-11
2.82195e-11
-2.82168e-11
5.33286e-11
-3.74416e-11
7.90447e-11
-3.8896e-11
1.01365e-10
-3.43617e-11
1.17253e-10
-2.5452e-11
1.24502e-10
-1.34532e-11
1.21575e-10
6.47219e-13
1.07454e-10
1.61071e-11
8.15135e-11
3.2375e-11
4.34325e-11
4.90376e-11
-6.88315e-12
6.57863e-11
-6.93534e-11
8.23889e-11
-1.43767e-10
9.86717e-11
-2.29814e-10
1.14505e-10
-3.2711e-10
1.29792e-10
-4.35217e-10
1.44464e-10
-5.53659e-10
1.58473e-10
-6.81931e-10
1.71784e-10
-8.19515e-10
1.84378e-10
-9.6588e-10
1.96246e-10
-1.12049e-09
2.07385e-10
-1.28283e-09
2.178e-10
-1.45236e-09
2.275e-10
-1.62857e-09
2.36498e-10
-1.81095e-09
2.4481e-10
-1.99902e-09
2.52455e-10
-2.19229e-09
2.59451e-10
-2.39029e-09
2.65818e-10
-2.59259e-09
2.71577e-10
-2.79873e-09
2.76749e-10
-3.00831e-09
2.81354e-10
-3.22091e-09
2.85412e-10
-3.43614e-09
2.88942e-10
-3.65363e-09
2.91962e-10
-3.87299e-09
2.94489e-10
-4.09389e-09
2.9654e-10
-4.31597e-09
2.98128e-10
-4.5389e-09
2.99268e-10
-4.76235e-09
2.99972e-10
-4.98601e-09
3.0025e-10
-5.20957e-09
3.00113e-10
-5.43271e-09
2.99569e-10
-5.65514e-09
2.98626e-10
-5.87657e-09
2.97288e-10
-6.09671e-09
2.95562e-10
-6.31526e-09
2.93451e-10
-6.53195e-09
2.90959e-10
-6.74649e-09
2.88087e-10
-6.95859e-09
2.84838e-10
-7.16797e-09
2.81211e-10
-7.37436e-09
2.77206e-10
-7.57747e-09
2.72825e-10
-7.77701e-09
2.68065e-10
-7.97271e-09
2.62926e-10
-8.16428e-09
2.57407e-10
-8.35144e-09
2.51507e-10
-8.5339e-09
2.45225e-10
-8.71138e-09
2.38559e-10
-8.88359e-09
2.31509e-10
-9.05025e-09
2.24075e-10
-9.21107e-09
2.16257e-10
-9.36576e-09
2.08056e-10
-9.51404e-09
1.99472e-10
-9.65563e-09
1.90509e-10
-9.79026e-09
1.8117e-10
-9.91764e-09
1.71457e-10
-1.00375e-08
1.61377e-10
-1.01496e-08
1.50935e-10
-1.02536e-08
1.40138e-10
-1.03493e-08
1.28995e-10
-1.04365e-08
1.17514e-10
-1.05149e-08
1.05709e-10
-1.05842e-08
9.35891e-11
-1.06443e-08
8.11697e-11
-1.06949e-08
6.84654e-11
-1.07359e-08
5.54928e-11
-1.07671e-08
4.22698e-11
-1.07882e-08
2.88159e-11
-1.07992e-08
1.51519e-11
-1.07999e-08
1.30031e-12
-1.07901e-08
-1.27152e-11
-1.07699e-08
-2.68694e-11
-1.0739e-08
-4.11358e-11
-1.06975e-08
-5.54864e-11
-1.06452e-08
-6.98921e-11
-1.05823e-08
-8.43225e-11
-1.05086e-08
-9.87461e-11
-1.04243e-08
-1.1313e-10
-1.03293e-08
-1.27441e-10
-1.02238e-08
-1.41645e-10
-1.01079e-08
-1.55706e-10
-9.98161e-09
-1.69588e-10
-9.84522e-09
-1.83256e-10
-9.69888e-09
-1.96671e-10
-9.5428e-09
-2.09797e-10
-9.37723e-09
-2.22597e-10
-9.20243e-09
-2.35034e-10
-9.0187e-09
-2.4707e-10
-8.82638e-09
-2.58668e-10
-8.6258e-09
-2.69792e-10
-8.41736e-09
-2.80406e-10
-8.20145e-09
-2.90476e-10
-7.97851e-09
-2.99967e-10
-7.74898e-09
-3.08846e-10
-7.51335e-09
-3.17082e-10
-7.27211e-09
-3.24644e-10
-7.02578e-09
-3.31504e-10
-6.77491e-09
-3.37635e-10
-6.52006e-09
-3.43011e-10
-6.26179e-09
-3.47611e-10
-6.0007e-09
-3.51412e-10
-5.73739e-09
-3.54396e-10
-5.47249e-09
-3.56548e-10
-5.20661e-09
-3.57853e-10
-4.94039e-09
-3.583e-10
-4.67448e-09
-3.57881e-10
-4.40951e-09
-3.5659e-10
-4.14614e-09
-3.54426e-10
-3.88501e-09
-3.51386e-10
-3.62676e-09
-3.47476e-10
-3.37204e-09
-3.427e-10
-3.12148e-09
-3.37068e-10
-2.8757e-09
-3.30593e-10
-2.63532e-09
-3.23288e-10
-2.40093e-09
-3.15173e-10
-2.17312e-09
-3.06268e-10
-1.95245e-09
-2.96597e-10
-1.73948e-09
-2.86189e-10
-1.53471e-09
-2.75072e-10
-1.33866e-09
-2.6328e-10
-1.15178e-09
-2.5085e-10
-9.74537e-10
-2.3782e-10
-8.07325e-10
-2.24233e-10
-6.50525e-10
-2.10135e-10
-5.04477e-10
-1.95573e-10
-3.69482e-10
-1.80601e-10
-2.45802e-10
-1.65274e-10
-1.33649e-10
-1.49653e-10
-3.31925e-11
-1.33801e-10
5.54536e-11
-1.17787e-10
1.3223e-10
-1.01688e-10
1.97137e-10
-8.55833e-11
2.50245e-10
-6.95632e-11
2.91695e-10
-5.37261e-11
3.21709e-10
-3.81814e-11
3.40604e-10
-2.30524e-11
3.48798e-10
-8.47919e-12
3.46829e-10
5.37749e-12
3.35372e-10
1.8331e-11
3.15264e-10
3.01614e-11
2.87528e-10
4.06079e-11
2.53413e-10
4.93575e-11
2.14434e-10
5.60326e-11
1.7242e-10
6.01769e-11
1.29558e-10
6.1246e-11
8.84279e-11
5.86172e-11
5.19768e-11
5.16549e-11
2.33642e-11
3.98645e-11
5.50682e-12
2.33749e-11
5.05828e-12
1.23613e-11
-2.3033e-11
3.75167e-11
-5.33722e-11
6.76904e-11
-6.76154e-11
9.67065e-11
-6.79121e-11
1.19487e-10
-5.7142e-11
1.32017e-10
-3.79822e-11
1.31245e-10
-1.26812e-11
1.14938e-10
1.69538e-11
8.15399e-11
4.95056e-11
3.00382e-11
8.38766e-11
-4.01421e-11
1.19218e-10
-1.29233e-10
1.54878e-10
-2.37198e-10
1.90354e-10
-3.63789e-10
2.25263e-10
-5.08596e-10
2.59311e-10
-6.71083e-10
2.92279e-10
-8.5062e-10
3.24002e-10
-1.04651e-09
3.5436e-10
-1.258e-09
3.83272e-10
-1.4843e-09
4.10683e-10
-1.72462e-09
4.36561e-10
-1.97813e-09
4.60894e-10
-2.24401e-09
4.83682e-10
-2.52145e-09
5.04939e-10
-2.80964e-09
5.24687e-10
-3.10778e-09
5.42954e-10
-3.4151e-09
5.59775e-10
-3.73084e-09
5.75186e-10
-4.05424e-09
5.89227e-10
-4.38461e-09
6.0194e-10
-4.72123e-09
6.13367e-10
-5.06342e-09
6.23548e-10
-5.41053e-09
6.32525e-10
-5.76193e-09
6.40337e-10
-6.11699e-09
6.47022e-10
-6.47511e-09
6.52615e-10
-6.83572e-09
6.57151e-10
-7.19826e-09
6.6066e-10
-7.56216e-09
6.63172e-10
-7.9269e-09
6.64712e-10
-8.29195e-09
6.65303e-10
-8.65681e-09
6.64968e-10
-9.02096e-09
6.63723e-10
-9.38392e-09
6.61585e-10
-9.7452e-09
6.58567e-10
-1.01043e-08
6.54681e-10
-1.04608e-08
6.49935e-10
-1.08142e-08
6.44336e-10
-1.1164e-08
6.3789e-10
-1.15097e-08
6.30599e-10
-1.1851e-08
6.22468e-10
-1.21873e-08
6.13495e-10
-1.25181e-08
6.03683e-10
-1.28431e-08
5.93029e-10
-1.31617e-08
5.81532e-10
-1.34735e-08
5.69192e-10
-1.3778e-08
5.56005e-10
-1.40747e-08
5.41972e-10
-1.43633e-08
5.27091e-10
-1.46431e-08
5.11361e-10
-1.49138e-08
4.94783e-10
-1.51749e-08
4.77358e-10
-1.5426e-08
4.59089e-10
-1.56665e-08
4.3998e-10
-1.5896e-08
4.20036e-10
-1.61141e-08
3.99266e-10
-1.63203e-08
3.77679e-10
-1.65142e-08
3.55287e-10
-1.66954e-08
3.32103e-10
-1.68634e-08
3.08145e-10
-1.70178e-08
2.83431e-10
-1.71583e-08
2.57984e-10
-1.72844e-08
2.31828e-10
-1.73958e-08
2.04991e-10
-1.74922e-08
1.77503e-10
-1.75731e-08
1.49399e-10
-1.76383e-08
1.20715e-10
-1.76875e-08
9.14914e-11
-1.77205e-08
6.1771e-11
-1.77369e-08
3.16003e-11
-1.77367e-08
1.02859e-12
-1.77195e-08
-2.98916e-11
-1.76853e-08
-6.11048e-11
-1.76338e-08
-9.25525e-11
-1.75652e-08
-1.24173e-10
-1.74792e-08
-1.55904e-10
-1.73758e-08
-1.87677e-10
-1.72551e-08
-2.19423e-10
-1.71172e-08
-2.51072e-10
-1.69621e-08
-2.8255e-10
-1.67899e-08
-3.13782e-10
-1.66009e-08
-3.4469e-10
-1.63953e-08
-3.75197e-10
-1.61734e-08
-4.05224e-10
-1.59354e-08
-4.34689e-10
-1.56816e-08
-4.63513e-10
-1.54126e-08
-4.91614e-10
-1.51287e-08
-5.18911e-10
-1.48305e-08
-5.45324e-10
-1.45184e-08
-5.70772e-10
-1.4193e-08
-5.95176e-10
-1.38549e-08
-6.1846e-10
-1.35049e-08
-6.40547e-10
-1.31435e-08
-6.61364e-10
-1.27715e-08
-6.80839e-10
-1.23897e-08
-6.98903e-10
-1.19988e-08
-7.15492e-10
-1.15998e-08
-7.30544e-10
-1.11934e-08
-7.43999e-10
-1.07806e-08
-7.55804e-10
-1.03623e-08
-7.6591e-10
-9.93946e-09
-7.74271e-10
-9.51301e-09
-7.80848e-10
-9.08395e-09
-7.85604e-10
-8.65329e-09
-7.88512e-10
-8.22204e-09
-7.89547e-10
-7.79123e-09
-7.88692e-10
-7.36189e-09
-7.85934e-10
-6.93505e-09
-7.81268e-10
-6.51174e-09
-7.74695e-10
-6.09299e-09
-7.66221e-10
-5.67983e-09
-7.55861e-10
-5.27327e-09
-7.43634e-10
-4.87429e-09
-7.29567e-10
-4.48389e-09
-7.13693e-10
-4.10301e-09
-6.96053e-10
-3.73258e-09
-6.76693e-10
-3.37351e-09
-6.55667e-10
-3.02667e-09
-6.33033e-10
-2.69288e-09
-6.0886e-10
-2.37294e-09
-5.83219e-10
-2.0676e-09
-5.56191e-10
-1.77756e-09
-5.27863e-10
-1.50346e-09
-4.98328e-10
-1.24591e-09
-4.67687e-10
-1.00543e-09
-4.36048e-10
-7.82508e-10
-4.03526e-10
-5.77537e-10
-3.70246e-10
-3.90849e-10
-3.3634e-10
-2.22698e-10
-3.01952e-10
-7.32515e-11
-2.67234e-10
5.74141e-11
-2.32353e-10
1.69321e-10
-1.9749e-10
2.626e-10
-1.62842e-10
3.37499e-10
-1.28625e-10
3.94398e-10
-9.50808e-11
4.33823e-10
-6.24773e-11
4.56462e-10
-3.1118e-11
4.63188e-10
-1.34813e-12
4.55081e-10
2.64374e-11
4.33464e-10
5.1779e-11
3.99929e-10
7.41429e-11
3.56383e-10
9.29033e-11
3.05088e-10
1.07328e-10
2.48701e-10
1.16564e-10
1.90304e-10
1.19643e-10
1.33405e-10
1.15517e-10
8.18771e-11
1.03182e-10
3.98077e-11
8.19339e-11
1.12177e-11
5.19649e-11
1.6276e-11
1.3258e-11
-3.62909e-11
3.91044e-11
-7.92186e-11
6.82086e-11
-9.67196e-11
9.34733e-11
-9.31768e-11
1.09166e-10
-7.28343e-11
1.10708e-10
-3.95249e-11
9.45423e-11
3.4849e-12
5.79886e-11
5.35075e-11
-8.82098e-13
1.08376e-10
-8.33699e-11
1.66364e-10
-1.90259e-10
2.26107e-10
-3.21912e-10
2.8653e-10
-4.78346e-10
3.46788e-10
-6.5931e-10
4.06227e-10
-8.64333e-10
4.64335e-10
-1.09278e-09
5.20721e-10
-1.34386e-09
5.75091e-10
-1.61673e-09
6.27224e-10
-1.91042e-09
6.76963e-10
-2.22394e-09
7.242e-10
-2.55624e-09
7.68867e-10
-2.90628e-09
8.10929e-10
-3.27297e-09
8.50377e-10
-3.65526e-09
8.87224e-10
-4.05207e-09
9.21496e-10
-4.46235e-09
9.53235e-10
-4.88506e-09
9.82491e-10
-5.3192e-09
1.00932e-09
-5.76376e-09
1.03379e-09
-6.21778e-09
1.05596e-09
-6.68032e-09
1.0759e-09
-7.15045e-09
1.09368e-09
-7.62728e-09
1.10936e-09
-8.10995e-09
1.12301e-09
-8.59762e-09
1.13469e-09
-9.08946e-09
1.14446e-09
-9.58468e-09
1.15237e-09
-1.00825e-08
1.15849e-09
-1.05822e-08
1.16285e-09
-1.1083e-08
1.1655e-09
-1.15841e-08
1.16648e-09
-1.2085e-08
1.16582e-09
-1.25848e-08
1.16356e-09
-1.3083e-08
1.15973e-09
-1.35788e-08
1.15435e-09
-1.40715e-08
1.14743e-09
-1.45606e-08
1.13899e-09
-1.50453e-08
1.12905e-09
-1.5525e-08
1.11761e-09
-1.59991e-08
1.10469e-09
-1.64669e-08
1.09028e-09
-1.69278e-08
1.07439e-09
-1.73811e-08
1.05702e-09
-1.78263e-08
1.03817e-09
-1.82626e-08
1.01784e-09
-1.86894e-08
9.96034e-10
-1.91061e-08
9.72741e-10
-1.95121e-08
9.47964e-10
-1.99067e-08
9.21703e-10
-2.02893e-08
8.93957e-10
-2.06593e-08
8.6473e-10
-2.1016e-08
8.34025e-10
-2.13587e-08
8.01849e-10
-2.1687e-08
7.6821e-10
-2.2e-08
7.33119e-10
-2.22974e-08
6.96592e-10
-2.25783e-08
6.58647e-10
-2.28423e-08
6.19305e-10
-2.30888e-08
5.78593e-10
-2.33172e-08
5.36541e-10
-2.3527e-08
4.93183e-10
-2.37176e-08
4.48559e-10
-2.38884e-08
4.02713e-10
-2.40391e-08
3.55695e-10
-2.41692e-08
3.07559e-10
-2.42782e-08
2.58364e-10
-2.43656e-08
2.08176e-10
-2.44312e-08
1.57064e-10
-2.44745e-08
1.05106e-10
-2.44953e-08
5.23804e-11
-2.44933e-08
-1.02454e-12
-2.44681e-08
-5.50178e-11
-2.44197e-08
-1.09503e-10
-2.43479e-08
-1.64377e-10
-2.42526e-08
-2.19535e-10
-2.41336e-08
-2.74865e-10
-2.3991e-08
-3.30251e-10
-2.38249e-08
-3.85574e-10
-2.36352e-08
-4.4071e-10
-2.34222e-08
-4.95533e-10
-2.31861e-08
-5.49912e-10
-2.29271e-08
-6.03714e-10
-2.26455e-08
-6.56804e-10
-2.23417e-08
-7.09046e-10
-2.20161e-08
-7.603e-10
-2.16691e-08
-8.10428e-10
-2.13015e-08
-8.5929e-10
-2.09136e-08
-9.06746e-10
-2.05063e-08
-9.52658e-10
-2.00802e-08
-9.96887e-10
-1.96361e-08
-1.0393e-09
-1.91748e-08
-1.07976e-09
-1.86972e-08
-1.11814e-09
-1.82042e-08
-1.15431e-09
-1.76969e-08
-1.18815e-09
-1.71763e-08
-1.21955e-09
-1.66434e-08
-1.24838e-09
-1.60994e-08
-1.27455e-09
-1.55454e-08
-1.29795e-09
-1.49827e-08
-1.31849e-09
-1.44125e-08
-1.33609e-09
-1.38362e-08
-1.35067e-09
-1.32548e-08
-1.36216e-09
-1.267e-08
-1.3705e-09
-1.20828e-08
-1.37564e-09
-1.14948e-08
-1.37754e-09
-1.09074e-08
-1.37617e-09
-1.03218e-08
-1.37151e-09
-9.7395e-09
-1.36355e-09
-9.16189e-09
-1.3523e-09
-8.59035e-09
-1.33776e-09
-8.02624e-09
-1.31997e-09
-7.47094e-09
-1.29894e-09
-6.92576e-09
-1.27474e-09
-6.39204e-09
-1.24742e-09
-5.87104e-09
-1.21705e-09
-5.36403e-09
-1.18371e-09
-4.8722e-09
-1.14749e-09
-4.39674e-09
-1.1085e-09
-3.93874e-09
-1.06686e-09
-3.49927e-09
-1.02269e-09
-3.07934e-09
-9.76126e-10
-2.67987e-09
-9.27328e-10
-2.30174e-09
-8.76457e-10
-1.94574e-09
-8.23688e-10
-1.61258e-09
-7.6921e-10
-1.30288e-09
-7.13226e-10
-1.01717e-09
-6.55953e-10
-7.55891e-10
-5.97622e-10
-5.19358e-10
-5.38485e-10
-3.07783e-10
-4.78809e-10
-1.21251e-10
-4.18885e-10
4.02853e-11
-3.59027e-10
1.77021e-10
-2.99578e-10
2.8931e-10
-2.40914e-10
3.77679e-10
-1.8345e-10
4.42848e-10
-1.27646e-10
4.85747e-10
-7.40173e-11
5.07545e-10
-2.31462e-11
5.09674e-10
2.43081e-11
4.93861e-10
6.75924e-11
4.62161e-10
1.05843e-10
4.16994e-10
1.3807e-10
3.61183e-10
1.63139e-10
2.9798e-10
1.79768e-10
2.31082e-10
1.8654e-10
1.6463e-10
1.81969e-10
1.03168e-10
1.64644e-10
5.15939e-11
1.33508e-10
1.51523e-11
8.84066e-11
3.14282e-11
1.21808e-11
-4.84718e-11
3.47248e-11
-1.01763e-10
5.76753e-11
-1.1967e-10
7.34309e-11
-1.08932e-10
7.58994e-11
-7.53028e-11
6.02052e-11
-2.38307e-11
2.25144e-11
4.11757e-11
-4.01071e-11
1.16129e-10
-1.29816e-10
1.98085e-10
-2.48103e-10
2.84651e-10
-3.95896e-10
3.739e-10
-5.73651e-10
4.64286e-10
-7.81438e-10
5.54575e-10
-1.019e-09
6.43793e-10
-1.28584e-09
7.3117e-10
-1.58123e-09
8.16109e-10
-1.90429e-09
8.98149e-10
-2.254e-09
9.76943e-10
-2.62928e-09
1.05223e-09
-3.02892e-09
1.12384e-09
-3.4517e-09
1.19165e-09
-3.89637e-09
1.25559e-09
-4.36162e-09
1.31563e-09
-4.84617e-09
1.37177e-09
-5.34872e-09
1.42405e-09
-5.868e-09
1.47251e-09
-6.40273e-09
1.51723e-09
-6.95168e-09
1.55827e-09
-7.51361e-09
1.59572e-09
-8.08734e-09
1.62968e-09
-8.67168e-09
1.66025e-09
-9.26551e-09
1.6875e-09
-9.8677e-09
1.71155e-09
-1.04772e-08
1.73249e-09
-1.10929e-08
1.7504e-09
-1.17138e-08
1.76537e-09
-1.23389e-08
1.77749e-09
-1.29673e-08
1.78683e-09
-1.35979e-08
1.79346e-09
-1.42298e-08
1.79745e-09
-1.48622e-08
1.79886e-09
-1.54941e-08
1.79774e-09
-1.61247e-08
1.79413e-09
-1.67531e-08
1.78808e-09
-1.73783e-08
1.77962e-09
-1.79997e-08
1.76879e-09
-1.86163e-08
1.7556e-09
-1.92273e-08
1.74008e-09
-1.9832e-08
1.72224e-09
-2.04294e-08
1.7021e-09
-2.10188e-08
1.67966e-09
-2.15993e-08
1.65493e-09
-2.21702e-08
1.62791e-09
-2.27306e-08
1.5986e-09
-2.32798e-08
1.56701e-09
-2.38169e-08
1.53313e-09
-2.43411e-08
1.49696e-09
-2.48516e-08
1.45851e-09
-2.53477e-08
1.41777e-09
-2.58285e-08
1.37475e-09
-2.62932e-08
1.32945e-09
-2.67411e-08
1.28189e-09
-2.71713e-08
1.23206e-09
-2.75831e-08
1.18e-09
-2.79757e-08
1.12572e-09
-2.83483e-08
1.06924e-09
-2.87003e-08
1.01059e-09
-2.90308e-08
9.49818e-10
-2.93391e-08
8.86952e-10
-2.96246e-08
8.22046e-10
-2.98866e-08
7.55155e-10
-3.01244e-08
6.8634e-10
-3.03373e-08
6.15671e-10
-3.05249e-08
5.43224e-10
-3.06864e-08
4.69086e-10
-3.08214e-08
3.93348e-10
-3.09293e-08
3.16111e-10
-3.10097e-08
2.37483e-10
-3.10622e-08
1.57583e-10
-3.10864e-08
7.65333e-11
-3.10819e-08
-5.53161e-12
-3.10484e-08
-8.84715e-11
-3.09858e-08
-1.72138e-10
-3.08938e-08
-2.56375e-10
-3.07723e-08
-3.4102e-10
-3.06212e-08
-4.25903e-10
-3.04407e-08
-5.10847e-10
-3.02306e-08
-5.9567e-10
-2.99911e-08
-6.80184e-10
-2.97224e-08
-7.64194e-10
-2.94248e-08
-8.47504e-10
-2.90986e-08
-9.29911e-10
-2.87442e-08
-1.01121e-09
-2.83621e-08
-1.09119e-09
-2.79527e-08
-1.16965e-09
-2.75168e-08
-1.24637e-09
-2.70549e-08
-1.32114e-09
-2.65679e-08
-1.39374e-09
-2.60566e-08
-1.46398e-09
-2.55219e-08
-1.53164e-09
-2.49647e-08
-1.59651e-09
-2.4386e-08
-1.65839e-09
-2.37871e-08
-1.71709e-09
-2.3169e-08
-1.77242e-09
-2.2533e-08
-1.82418e-09
-2.18803e-08
-1.87221e-09
-2.12123e-08
-1.91633e-09
-2.05305e-08
-1.95638e-09
-1.98363e-08
-1.99221e-09
-1.91311e-08
-2.02368e-09
-1.84165e-08
-2.05067e-09
-1.76941e-08
-2.07306e-09
-1.69655e-08
-2.09074e-09
-1.62324e-08
-2.10362e-09
-1.54964e-08
-2.11163e-09
-1.47592e-08
-2.11471e-09
-1.40226e-08
-2.11282e-09
-1.32882e-08
-2.10592e-09
-1.25577e-08
-2.09399e-09
-1.1833e-08
-2.07706e-09
-1.11156e-08
-2.05513e-09
-1.04073e-08
-2.02824e-09
-9.70984e-09
-1.99644e-09
-9.02477e-09
-1.95981e-09
-8.35375e-09
-1.91844e-09
-7.69836e-09
-1.87244e-09
-7.06015e-09
-1.82192e-09
-6.44061e-09
-1.76703e-09
-5.84118e-09
-1.70793e-09
-5.26323e-09
-1.64481e-09
-4.70807e-09
-1.57784e-09
-4.17694e-09
-1.50726e-09
-3.67099e-09
-1.43328e-09
-3.19128e-09
-1.35617e-09
-2.73878e-09
-1.27619e-09
-2.31436e-09
-1.19363e-09
-1.91879e-09
-1.1088e-09
-1.55271e-09
-1.02204e-09
-1.21663e-09
-9.33695e-10
-9.10958e-10
-8.44161e-10
-6.35923e-10
-7.53845e-10
-3.91618e-10
-6.63189e-10
-1.7797e-10
-5.72676e-10
5.27716e-12
-4.82825e-10
1.58571e-10
-3.94208e-10
2.82572e-10
-3.0745e-10
3.78168e-10
-2.23242e-10
4.46502e-10
-1.42352e-10
4.88993e-10
-6.56366e-11
5.07361e-10
5.93988e-12
5.03662e-10
7.12917e-11
4.80313e-10
1.29192e-10
4.40128e-10
1.78255e-10
3.86342e-10
2.16924e-10
3.22639e-10
2.43471e-10
2.53161e-10
2.56018e-10
1.82521e-10
2.52609e-10
1.15815e-10
2.3135e-10
5.86725e-11
1.90651e-10
1.74488e-11
1.2963e-10
4.8877e-11
9.76208e-12
-5.82339e-11
2.59351e-11
-1.17936e-10
3.86504e-11
-1.32385e-10
4.02118e-11
-1.10494e-10
2.44312e-11
-5.95222e-11
-1.36608e-11
1.42613e-11
-7.79991e-11
1.05514e-10
-1.71625e-10
2.09755e-10
-2.96802e-10
3.23262e-10
-4.55117e-10
4.42967e-10
-6.47577e-10
5.6636e-10
-8.74692e-10
6.914e-10
-1.13655e-09
8.16436e-10
-1.4329e-09
9.40142e-10
-1.76319e-09
1.06146e-09
-2.12665e-09
1.17956e-09
-2.52229e-09
1.29379e-09
-2.94899e-09
1.40365e-09
-3.40552e-09
1.50876e-09
-3.89055e-09
1.60887e-09
-4.40267e-09
1.70377e-09
-4.94044e-09
1.79336e-09
-5.50239e-09
1.87758e-09
-6.08704e-09
1.95642e-09
-6.69288e-09
2.0299e-09
-7.31845e-09
2.09808e-09
-7.96225e-09
2.16103e-09
-8.62284e-09
2.21886e-09
-9.29878e-09
2.27167e-09
-9.98867e-09
2.31958e-09
-1.06911e-08
2.36271e-09
-1.14048e-08
2.40119e-09
-1.21284e-08
2.43515e-09
-1.28606e-08
2.4647e-09
-1.36002e-08
2.48998e-09
-1.43459e-08
2.5111e-09
-1.50966e-08
2.52817e-09
-1.58511e-08
2.54129e-09
-1.66082e-08
2.55056e-09
-1.73668e-08
2.55607e-09
-1.81258e-08
2.55789e-09
-1.88842e-08
2.55611e-09
-1.96409e-08
2.55079e-09
-2.03948e-08
2.54198e-09
-2.11449e-08
2.52973e-09
-2.18902e-08
2.51409e-09
-2.26296e-08
2.49508e-09
-2.33623e-08
2.47275e-09
-2.40872e-08
2.44711e-09
-2.48033e-08
2.41817e-09
-2.55096e-08
2.38596e-09
-2.62051e-08
2.35048e-09
-2.68889e-08
2.31174e-09
-2.75601e-08
2.26974e-09
-2.82176e-08
2.22449e-09
-2.88604e-08
2.17599e-09
-2.94877e-08
2.12423e-09
-3.00984e-08
2.06923e-09
-3.06917e-08
2.01099e-09
-3.12664e-08
1.94951e-09
-3.18218e-08
1.88481e-09
-3.23568e-08
1.81689e-09
-3.28705e-08
1.74579e-09
-3.3362e-08
1.67152e-09
-3.38304e-08
1.59412e-09
-3.42748e-08
1.51362e-09
-3.46943e-08
1.43007e-09
-3.5088e-08
1.34352e-09
-3.54551e-08
1.25404e-09
-3.57947e-08
1.16168e-09
-3.61061e-08
1.06655e-09
-3.63885e-08
9.68711e-10
-3.66411e-08
8.6828e-10
-3.68632e-08
7.65365e-10
-3.70542e-08
6.60087e-10
-3.72135e-08
5.52577e-10
-3.73403e-08
4.42981e-10
-3.74343e-08
3.31453e-10
-3.74949e-08
2.18158e-10
-3.75216e-08
1.03275e-10
-3.75142e-08
-1.3009e-11
-3.74721e-08
-1.30494e-10
-3.73953e-08
-2.48971e-10
-3.72835e-08
-3.6822e-10
-3.71365e-08
-4.8801e-10
-3.69543e-08
-6.08102e-10
-3.67369e-08
-7.28248e-10
-3.64843e-08
-8.48191e-10
-3.61969e-08
-9.67666e-10
-3.58747e-08
-1.0864e-09
-3.5518e-08
-1.20412e-09
-3.51274e-08
-1.32054e-09
-3.47033e-08
-1.43537e-09
-3.42461e-08
-1.54832e-09
-3.37567e-08
-1.65909e-09
-3.32357e-08
-1.7674e-09
-3.26839e-08
-1.87293e-09
-3.21022e-08
-1.97541e-09
-3.14916e-08
-2.07453e-09
-3.08533e-08
-2.17e-09
-3.01882e-08
-2.26154e-09
-2.94978e-08
-2.34886e-09
-2.87832e-08
-2.43169e-09
-2.80458e-08
-2.50976e-09
-2.72872e-08
-2.58282e-09
-2.65088e-08
-2.65061e-09
-2.57122e-08
-2.7129e-09
-2.48991e-08
-2.76947e-09
-2.40712e-08
-2.8201e-09
-2.32303e-08
-2.86461e-09
-2.23782e-08
-2.90281e-09
-2.15167e-08
-2.93454e-09
-2.06478e-08
-2.95966e-09
-1.97734e-08
-2.97804e-09
-1.88954e-08
-2.98958e-09
-1.80159e-08
-2.9942e-09
-1.71369e-08
-2.99183e-09
-1.62604e-08
-2.98243e-09
-1.53884e-08
-2.96599e-09
-1.45229e-08
-2.94251e-09
-1.36661e-08
-2.91202e-09
-1.28197e-08
-2.87457e-09
-1.19859e-08
-2.83024e-09
-1.11666e-08
-2.77913e-09
-1.03637e-08
-2.72137e-09
-9.57899e-09
-2.65711e-09
-8.81438e-09
-2.58653e-09
-8.0716e-09
-2.50982e-09
-7.35232e-09
-2.42721e-09
-6.65817e-09
-2.33895e-09
-5.99069e-09
-2.24533e-09
-5.35131e-09
-2.14663e-09
-4.74139e-09
-2.0432e-09
-4.16219e-09
-1.93538e-09
-3.61482e-09
-1.82355e-09
-3.10031e-09
-1.70813e-09
-2.61955e-09
-1.58956e-09
-2.17328e-09
-1.46831e-09
-1.7621e-09
-1.34487e-09
-1.38647e-09
-1.21979e-09
-1.04665e-09
-1.09366e-09
-7.42748e-10
-9.67093e-10
-4.74659e-10
-8.40765e-10
-2.42077e-10
-7.15406e-10
-4.4475e-11
-5.91811e-10
1.18921e-10
-4.70846e-10
2.49142e-10
-3.53464e-10
3.47506e-10
-2.40716e-10
4.15635e-10
-1.33765e-10
4.55482e-10
-3.39071e-11
4.69359e-10
5.74144e-11
4.59964e-10
1.38587e-10
4.30403e-10
2.07815e-10
3.84221e-10
2.63106e-10
3.25418e-10
3.02274e-10
2.58472e-10
3.22964e-10
1.88372e-10
3.2271e-10
1.20669e-10
2.99052e-10
6.16113e-11
2.49709e-10
1.84103e-11
1.72831e-10
6.72873e-11
6.43654e-12
-6.46704e-11
1.39579e-11
-1.25457e-10
1.3251e-11
-1.31678e-10
-3.137e-12
-9.41057e-11
-4.12587e-11
-2.14005e-11
-1.06004e-10
7.90062e-11
-2.01265e-10
2.00775e-10
-3.30071e-10
3.38561e-10
-4.9469e-10
4.8788e-10
-6.96723e-10
6.45e-10
-9.3719e-10
8.06828e-10
-1.21661e-09
9.70818e-10
-1.53506e-09
1.13489e-09
-1.89227e-09
1.29735e-09
-2.28764e-09
1.45683e-09
-2.72033e-09
1.61225e-09
-3.18929e-09
1.76275e-09
-3.6933e-09
1.90765e-09
-4.23099e-09
2.04646e-09
-4.8009e-09
2.17878e-09
-5.4015e-09
2.30437e-09
-6.03119e-09
2.42305e-09
-6.68833e-09
2.53472e-09
-7.37126e-09
2.63935e-09
-8.07831e-09
2.73695e-09
-8.80781e-09
2.82758e-09
-9.5581e-09
2.91132e-09
-1.03275e-08
2.9883e-09
-1.11145e-08
3.05864e-09
-1.19174e-08
3.12247e-09
-1.27347e-08
3.17997e-09
-1.35648e-08
3.23127e-09
-1.44062e-08
3.27654e-09
-1.52574e-08
3.31595e-09
-1.6117e-08
3.34963e-09
-1.69837e-08
3.37774e-09
-1.78559e-08
3.40042e-09
-1.87324e-08
3.4178e-09
-1.96119e-08
3.43e-09
-2.0493e-08
3.43715e-09
-2.13744e-08
3.43935e-09
-2.2255e-08
3.43668e-09
-2.31334e-08
3.42924e-09
-2.40086e-08
3.4171e-09
-2.48792e-08
3.40032e-09
-2.5744e-08
3.37897e-09
-2.6602e-08
3.35307e-09
-2.7452e-08
3.32269e-09
-2.82927e-08
3.28784e-09
-2.91231e-08
3.24855e-09
-2.9942e-08
3.20485e-09
-3.07482e-08
3.15674e-09
-3.15407e-08
3.10424e-09
-3.23183e-08
3.04736e-09
-3.308e-08
2.98609e-09
-3.38244e-08
2.92046e-09
-3.45506e-08
2.85046e-09
-3.52575e-08
2.7761e-09
-3.59439e-08
2.69739e-09
-3.66088e-08
2.61435e-09
-3.72509e-08
2.52699e-09
-3.78694e-08
2.43533e-09
-3.8463e-08
2.33941e-09
-3.90307e-08
2.23926e-09
-3.95715e-08
2.13493e-09
-4.00844e-08
2.02647e-09
-4.05682e-08
1.91394e-09
-4.10221e-08
1.79742e-09
-4.14451e-08
1.677e-09
-4.18362e-08
1.55276e-09
-4.21945e-08
1.42483e-09
-4.25191e-08
1.29333e-09
-4.28092e-08
1.15839e-09
-4.3064e-08
1.02016e-09
-4.32827e-08
8.78807e-10
-4.34646e-08
7.34511e-10
-4.36091e-08
5.87466e-10
-4.37156e-08
4.3788e-10
-4.37834e-08
2.85976e-10
-4.38121e-08
1.31991e-10
-4.38013e-08
-2.38207e-11
-4.37506e-08
-1.81194e-10
-4.36597e-08
-3.39849e-10
-4.35284e-08
-4.99491e-10
-4.33566e-08
-6.59814e-10
-4.31442e-08
-8.20498e-10
-4.28913e-08
-9.81213e-10
-4.25978e-08
-1.14162e-09
-4.22641e-08
-1.30136e-09
-4.18905e-08
-1.46008e-09
-4.14772e-08
-1.6174e-09
-4.10248e-08
-1.77296e-09
-4.05338e-08
-1.92636e-09
-4.00049e-08
-2.07723e-09
-3.94388e-08
-2.22518e-09
-3.88364e-08
-2.3698e-09
-3.81986e-08
-2.51072e-09
-3.75265e-08
-2.64753e-09
-3.68211e-08
-2.77985e-09
-3.60838e-08
-2.9073e-09
-3.53159e-08
-3.02949e-09
-3.45187e-08
-3.14606e-09
-3.36937e-08
-3.25664e-09
-3.28426e-08
-3.36087e-09
-3.1967e-08
-3.45842e-09
-3.10687e-08
-3.54897e-09
-3.01494e-08
-3.63219e-09
-2.9211e-08
-3.70779e-09
-2.82556e-08
-3.7755e-09
-2.72852e-08
-3.83506e-09
-2.63018e-08
-3.88624e-09
-2.53075e-08
-3.92882e-09
-2.43045e-08
-3.96261e-09
-2.32951e-08
-3.98745e-09
-2.22815e-08
-4.00321e-09
-2.12659e-08
-4.00977e-09
-2.02507e-08
-4.00705e-09
-1.92381e-08
-3.99499e-09
-1.82305e-08
-3.97359e-09
-1.72302e-08
-3.94284e-09
-1.62395e-08
-3.90278e-09
-1.52605e-08
-3.85349e-09
-1.42957e-08
-3.79507e-09
-1.33472e-08
-3.72766e-09
-1.24171e-08
-3.65142e-09
-1.15077e-08
-3.56655e-09
-1.06209e-08
-3.47329e-09
-9.75883e-09
-3.37191e-09
-8.92333e-09
-3.26271e-09
-8.11625e-09
-3.14603e-09
-7.33935e-09
-3.02223e-09
-6.59427e-09
-2.89171e-09
-5.88255e-09
-2.75492e-09
-5.20559e-09
-2.61233e-09
-4.56469e-09
-2.46445e-09
-3.961e-09
-2.31182e-09
-3.39553e-09
-2.15504e-09
-2.86911e-09
-1.99472e-09
-2.38243e-09
-1.83155e-09
-1.93598e-09
-1.66624e-09
-1.53009e-09
-1.49956e-09
-1.16484e-09
-1.33234e-09
-8.40131e-10
-1.16547e-09
-5.55613e-10
-9.99924e-10
-3.10691e-10
-8.36733e-10
-1.04503e-10
-6.77034e-10
6.41004e-11
-5.22067e-10
1.96572e-10
-3.73188e-10
2.94696e-10
-2.31889e-10
3.60606e-10
-9.9817e-11
3.96811e-10
2.12101e-11
4.06215e-10
1.29183e-10
3.92148e-10
2.21883e-10
3.58379e-10
2.96875e-10
3.09148e-10
3.51506e-10
2.4919e-10
3.82922e-10
1.83787e-10
3.88112e-10
1.18858e-10
3.63982e-10
6.1108e-11
3.07459e-10
1.83245e-11
2.15615e-10
8.56117e-11
2.50577e-12
-6.71762e-11
-2.85233e-13
-1.22666e-10
-1.68499e-11
-1.15114e-10
-5.41507e-11
-5.68049e-11
-1.17913e-10
4.23614e-11
-2.12796e-10
1.7389e-10
-3.42532e-10
3.30511e-10
-5.10032e-10
5.0606e-10
-7.17481e-10
6.9533e-10
-9.66423e-10
8.93942e-10
-1.25783e-09
1.09824e-09
-1.59218e-09
1.30517e-09
-1.96952e-09
1.51223e-09
-2.38951e-09
1.71734e-09
-2.85152e-09
1.91884e-09
-3.35462e-09
2.11536e-09
-3.8977e-09
2.30582e-09
-4.47942e-09
2.48937e-09
-5.09833e-09
2.66536e-09
-5.75284e-09
2.8333e-09
-6.4413e-09
2.99283e-09
-7.16195e-09
3.14371e-09
-7.91304e-09
3.2858e-09
-8.69272e-09
3.41904e-09
-9.49919e-09
3.54342e-09
-1.03306e-08
3.65899e-09
-1.11851e-08
3.76586e-09
-1.2061e-08
3.86414e-09
-1.29563e-08
3.95398e-09
-1.38694e-08
4.03555e-09
-1.47985e-08
4.10904e-09
-1.57418e-08
4.17462e-09
-1.66978e-08
4.23249e-09
-1.76647e-08
4.28283e-09
-1.86409e-08
4.32584e-09
-1.96248e-08
4.36169e-09
-2.0615e-08
4.39056e-09
-2.16098e-08
4.41261e-09
-2.26078e-08