/*--------------------------------*- C++ -*----------------------------------*\
| =========                 |                                                 |
| \\      /  F ield         | OpenFOAM: The Open Source CFD Toolbox           |
|  \\    /   O peration     | Version:  2.1.1                                 |
|   \\  /    A nd           | Web:      www.OpenFOAM.org                      |
|    \\/     M anipulation  |                                                 |
\*---------------------------------------------------------------------------*/
FoamFile
{
    version     2.0;
    format      ascii;
    class       volVectorField;
    location    "1";
    object      U;
}
// * * * * * * * * * * * * * * * * * * * * * * * * * * * * * * * * * * * * * //

dimensions      [0 1 -1 0 0 0 0];

internalField   nonuniform List<vector> 
25921
(
(3.19639e-07 -3.1988e-07 0)
(3.51411e-06 -2.10228e-06 0)
(1.05533e-05 -3.181e-06 0)
(1.90986e-05 -3.48751e-06 0)
(2.74492e-05 -3.284e-06 0)
(3.45633e-05 -2.76485e-06 0)
(3.97489e-05 -2.05469e-06 0)
(4.25516e-05 -1.23435e-06 0)
(4.26898e-05 -3.55653e-07 0)
(4.00019e-05 5.48081e-07 0)
(3.44106e-05 1.45482e-06 0)
(2.58988e-05 2.34973e-06 0)
(1.44931e-05 3.2227e-06 0)
(2.51783e-07 4.06674e-06 0)
(-1.67436e-05 4.87714e-06 0)
(-3.6395e-05 5.65077e-06 0)
(-5.85922e-05 6.38566e-06 0)
(-8.32174e-05 7.08073e-06 0)
(-0.000110147 7.73555e-06 0)
(-0.000139255 8.35018e-06 0)
(-0.000170415 8.92507e-06 0)
(-0.000203498 9.46095e-06 0)
(-0.000238378 9.95875e-06 0)
(-0.000274933 1.04196e-05 0)
(-0.00031304 1.08446e-05 0)
(-0.000352582 1.12352e-05 0)
(-0.000393443 1.15926e-05 0)
(-0.000435513 1.19181e-05 0)
(-0.000478684 1.22131e-05 0)
(-0.000522853 1.24789e-05 0)
(-0.00056792 1.27166e-05 0)
(-0.00061379 1.29277e-05 0)
(-0.00066037 1.31131e-05 0)
(-0.000707571 1.3274e-05 0)
(-0.000755308 1.34115e-05 0)
(-0.000803499 1.35264e-05 0)
(-0.000852064 1.36196e-05 0)
(-0.000900926 1.3692e-05 0)
(-0.000950012 1.37442e-05 0)
(-0.000999249 1.3777e-05 0)
(-0.00104857 1.37908e-05 0)
(-0.0010979 1.37862e-05 0)
(-0.00114718 1.37635e-05 0)
(-0.00119634 1.37232e-05 0)
(-0.00124531 1.36655e-05 0)
(-0.00129404 1.35907e-05 0)
(-0.00134246 1.34988e-05 0)
(-0.00139051 1.339e-05 0)
(-0.00143812 1.32644e-05 0)
(-0.00148524 1.31221e-05 0)
(-0.00153181 1.29628e-05 0)
(-0.00157775 1.27868e-05 0)
(-0.00162302 1.25937e-05 0)
(-0.00166755 1.23836e-05 0)
(-0.00171128 1.21564e-05 0)
(-0.00175414 1.19119e-05 0)
(-0.00179607 1.165e-05 0)
(-0.00183702 1.13705e-05 0)
(-0.00187691 1.10733e-05 0)
(-0.00191569 1.07584e-05 0)
(-0.00195329 1.04256e-05 0)
(-0.00198964 1.00748e-05 0)
(-0.00202469 9.70609e-06 0)
(-0.00205838 9.31934e-06 0)
(-0.00209062 8.9146e-06 0)
(-0.00212138 8.49194e-06 0)
(-0.00215057 8.05146e-06 0)
(-0.00217815 7.59332e-06 0)
(-0.00220405 7.11773e-06 0)
(-0.0022282 6.62496e-06 0)
(-0.00225056 6.11533e-06 0)
(-0.00227106 5.58922e-06 0)
(-0.00228965 5.0471e-06 0)
(-0.00230627 4.48949e-06 0)
(-0.00232087 3.91697e-06 0)
(-0.0023334 3.33022e-06 0)
(-0.00234382 2.72996e-06 0)
(-0.00235209 2.117e-06 0)
(-0.00235815 1.49224e-06 0)
(-0.00236197 8.56632e-07 0)
(-0.00236352 2.11204e-07 0)
(-0.00236277 -4.42932e-07 0)
(-0.00235969 -1.10459e-06 0)
(-0.00235426 -1.77253e-06 0)
(-0.00234647 -2.44543e-06 0)
(-0.00233629 -3.12189e-06 0)
(-0.00232372 -3.80047e-06 0)
(-0.00230876 -4.47965e-06 0)
(-0.00229141 -5.15787e-06 0)
(-0.00227168 -5.8335e-06 0)
(-0.00224958 -6.50488e-06 0)
(-0.00222514 -7.17028e-06 0)
(-0.00219837 -7.82797e-06 0)
(-0.00216932 -8.47617e-06 0)
(-0.00213801 -9.11305e-06 0)
(-0.0021045 -9.73682e-06 0)
(-0.00206882 -1.03456e-05 0)
(-0.00203105 -1.09376e-05 0)
(-0.00199124 -1.1511e-05 0)
(-0.00194946 -1.20639e-05 0)
(-0.00190579 -1.25945e-05 0)
(-0.00186031 -1.31011e-05 0)
(-0.0018131 -1.35819e-05 0)
(-0.00176427 -1.40352e-05 0)
(-0.0017139 -1.44594e-05 0)
(-0.00166211 -1.48529e-05 0)
(-0.001609 -1.52141e-05 0)
(-0.00155468 -1.55417e-05 0)
(-0.00149929 -1.58342e-05 0)
(-0.00144293 -1.60905e-05 0)
(-0.00138575 -1.63093e-05 0)
(-0.00132786 -1.64897e-05 0)
(-0.00126941 -1.66305e-05 0)
(-0.00121054 -1.67311e-05 0)
(-0.00115138 -1.67907e-05 0)
(-0.00109208 -1.68087e-05 0)
(-0.00103278 -1.67848e-05 0)
(-0.000973629 -1.67185e-05 0)
(-0.000914771 -1.66098e-05 0)
(-0.000856354 -1.64585e-05 0)
(-0.000798525 -1.62649e-05 0)
(-0.000741428 -1.60292e-05 0)
(-0.000685208 -1.57517e-05 0)
(-0.000630009 -1.54331e-05 0)
(-0.000575971 -1.50741e-05 0)
(-0.000523231 -1.46755e-05 0)
(-0.000471924 -1.42382e-05 0)
(-0.00042218 -1.37635e-05 0)
(-0.000374127 -1.32525e-05 0)
(-0.000327886 -1.27068e-05 0)
(-0.000283574 -1.21278e-05 0)
(-0.000241301 -1.15172e-05 0)
(-0.000201172 -1.08768e-05 0)
(-0.000163285 -1.02086e-05 0)
(-0.000127731 -9.51459e-06 0)
(-9.45925e-05 -8.7971e-06 0)
(-6.39444e-05 -8.05846e-06 0)
(-3.58527e-05 -7.30119e-06 0)
(-1.03736e-05 -6.52799e-06 0)
(1.24463e-05 -5.74177e-06 0)
(3.25717e-05 -4.94555e-06 0)
(4.99787e-05 -4.14273e-06 0)
(6.46563e-05 -3.33693e-06 0)
(7.66073e-05 -2.53217e-06 0)
(8.58496e-05 -1.73287e-06 0)
(9.24182e-05 -9.44029e-07 0)
(9.63672e-05 -1.71349e-07 0)
(9.77723e-05 5.78553e-07 0)
(9.67339e-05 1.29781e-06 0)
(9.3382e-05 1.97705e-06 0)
(8.78807e-05 2.6046e-06 0)
(8.04363e-05 3.16575e-06 0)
(7.13062e-05 3.64142e-06 0)
(6.08116e-05 4.00621e-06 0)
(4.93552e-05 4.22532e-06 0)
(3.74447e-05 4.25029e-06 0)
(2.57236e-05 4.01471e-06 0)
(1.49988e-05 3.4334e-06 0)
(6.26056e-06 2.40701e-06 0)
(7.07552e-07 8.95488e-07 0)
(-5.54353e-07 -5.53642e-07 0)
(2.10322e-06 -3.51413e-06 0)
(1.07097e-05 -1.07047e-05 0)
(2.57465e-05 -1.47318e-05 0)
(4.28797e-05 -1.56297e-05 0)
(5.88926e-05 -1.42013e-05 0)
(7.15891e-05 -1.11432e-05 0)
(7.93257e-05 -6.9785e-06 0)
(8.09164e-05 -2.09005e-06 0)
(7.55561e-05 3.24694e-06 0)
(6.2732e-05 8.83507e-06 0)
(4.21518e-05 1.45315e-05 0)
(1.36913e-05 2.02322e-05 0)
(-2.26467e-05 2.58608e-05 0)
(-6.67625e-05 3.13613e-05 0)
(-0.000118484 3.66927e-05 0)
(-0.000177584 4.18255e-05 0)
(-0.000243794 4.67387e-05 0)
(-0.000316819 5.14181e-05 0)
(-0.000396341 5.58549e-05 0)
(-0.000482029 6.0044e-05 0)
(-0.000573544 6.39839e-05 0)
(-0.000670543 6.76753e-05 0)
(-0.000772684 7.1121e-05 0)
(-0.000879627 7.43252e-05 0)
(-0.000991036 7.72932e-05 0)
(-0.00110658 8.00313e-05 0)
(-0.00122594 8.25461e-05 0)
(-0.00134881 8.48448e-05 0)
(-0.00147487 8.69347e-05 0)
(-0.00160384 8.88232e-05 0)
(-0.00173542 9.05176e-05 0)
(-0.00186935 9.20251e-05 0)
(-0.00200536 9.33526e-05 0)
(-0.00214318 9.45068e-05 0)
(-0.00228257 9.54939e-05 0)
(-0.0024233 9.63199e-05 0)
(-0.00256512 9.69902e-05 0)
(-0.00270781 9.75099e-05 0)
(-0.00285116 9.78837e-05 0)
(-0.00299495 9.81157e-05 0)
(-0.00313897 9.82097e-05 0)
(-0.00328302 9.81688e-05 0)
(-0.0034269 9.79959e-05 0)
(-0.00357043 9.76934e-05 0)
(-0.0037134 9.72634e-05 0)
(-0.00385563 9.67074e-05 0)
(-0.00399693 9.60268e-05 0)
(-0.00413713 9.52224e-05 0)
(-0.00427603 9.4295e-05 0)
(-0.00441345 9.3245e-05 0)
(-0.00454921 9.20724e-05 0)
(-0.00468313 9.07772e-05 0)
(-0.00481504 8.93593e-05 0)
(-0.00494474 8.78182e-05 0)
(-0.00507205 8.61535e-05 0)
(-0.0051968 8.43649e-05 0)
(-0.00531879 8.24516e-05 0)
(-0.00543786 8.04133e-05 0)
(-0.0055538 7.82494e-05 0)
(-0.00566645 7.59597e-05 0)
(-0.00577561 7.35439e-05 0)
(-0.0058811 7.10019e-05 0)
(-0.00598274 6.83337e-05 0)
(-0.00608034 6.55398e-05 0)
(-0.00617373 6.26206e-05 0)
(-0.00626272 5.9577e-05 0)
(-0.00634712 5.64102e-05 0)
(-0.00642678 5.31217e-05 0)
(-0.0065015 4.97133e-05 0)
(-0.00657113 4.61872e-05 0)
(-0.00663549 4.2546e-05 0)
(-0.00669442 3.87929e-05 0)
(-0.00674776 3.49312e-05 0)
(-0.00679536 3.09649e-05 0)
(-0.00683707 2.68984e-05 0)
(-0.00687276 2.27367e-05 0)
(-0.0069023 1.8485e-05 0)
(-0.00692556 1.41492e-05 0)
(-0.00694242 9.73565e-06 0)
(-0.00695278 5.2512e-06 0)
(-0.00695656 7.0316e-07 0)
(-0.00695365 -3.90065e-06 0)
(-0.00694401 -8.55195e-06 0)
(-0.00692755 -1.3242e-05 0)
(-0.00690425 -1.79616e-05 0)
(-0.00687406 -2.27011e-05 0)
(-0.00683698 -2.74504e-05 0)
(-0.00679298 -3.21992e-05 0)
(-0.0067421 -3.69367e-05 0)
(-0.00668435 -4.16516e-05 0)
(-0.00661978 -4.63326e-05 0)
(-0.00654845 -5.0968e-05 0)
(-0.00647044 -5.55459e-05 0)
(-0.00638584 -6.0054e-05 0)
(-0.00629477 -6.44803e-05 0)
(-0.00619735 -6.88122e-05 0)
(-0.00609374 -7.30374e-05 0)
(-0.00598409 -7.71435e-05 0)
(-0.0058686 -8.1118e-05 0)
(-0.00574746 -8.49486e-05 0)
(-0.00562089 -8.86233e-05 0)
(-0.00548912 -9.213e-05 0)
(-0.00535241 -9.54571e-05 0)
(-0.00521103 -9.85932e-05 0)
(-0.00506526 -0.000101527 0)
(-0.0049154 -0.000104249 0)
(-0.00476177 -0.000106747 0)
(-0.00460469 -0.000109014 0)
(-0.00444451 -0.000111039 0)
(-0.00428157 -0.000112814 0)
(-0.00411625 -0.000114332 0)
(-0.00394892 -0.000115585 0)
(-0.00377997 -0.000116567 0)
(-0.00360979 -0.000117273 0)
(-0.00343877 -0.000117699 0)
(-0.00326734 -0.00011784 0)
(-0.00309589 -0.000117693 0)
(-0.00292484 -0.000117257 0)
(-0.00275462 -0.000116531 0)
(-0.00258562 -0.000115515 0)
(-0.00241828 -0.000114209 0)
(-0.00225301 -0.000112615 0)
(-0.00209021 -0.000110738 0)
(-0.00193029 -0.000108579 0)
(-0.00177365 -0.000106146 0)
(-0.00162067 -0.000103442 0)
(-0.00147175 -0.000100477 0)
(-0.00132726 -9.72559e-05 0)
(-0.00118754 -9.37896e-05 0)
(-0.00105294 -9.00875e-05 0)
(-0.000923804 -8.61604e-05 0)
(-0.00080043 -8.20203e-05 0)
(-0.000683116 -7.768e-05 0)
(-0.000572137 -7.31534e-05 0)
(-0.000467748 -6.84553e-05 0)
(-0.000370181 -6.36018e-05 0)
(-0.000279641 -5.86098e-05 0)
(-0.00019631 -5.34975e-05 0)
(-0.000120341 -4.82846e-05 0)
(-5.18593e-05 -4.2992e-05 0)
(9.04525e-06 -3.76422e-05 0)
(6.23153e-05 -3.22596e-05 0)
(0.000107931 -2.68709e-05 0)
(0.000145915 -2.15051e-05 0)
(0.000176333 -1.61944e-05 0)
(0.000199301 -1.09749e-05 0)
(0.000214991 -5.88715e-06 0)
(0.000223637 -9.77695e-07 0)
(0.000225545 3.69958e-06 0)
(0.000221103 8.08154e-06 0)
(0.000210792 1.20927e-05 0)
(0.000195207 1.56421e-05 0)
(0.000175076 1.86178e-05 0)
(0.00015128 2.08814e-05 0)
(0.00012489 2.22592e-05 0)
(9.71946e-05 2.25345e-05 0)
(6.97328e-05 2.14459e-05 0)
(4.42811e-05 1.87072e-05 0)
(2.2794e-05 1.4065e-05 0)
(7.53815e-06 7.54797e-06 0)
(8.90738e-07 7.05903e-07 0)
(3.18926e-06 -1.05607e-05 0)
(1.47674e-05 -2.57504e-05 0)
(3.34728e-05 -3.34143e-05 0)
(5.35539e-05 -3.43108e-05 0)
(7.09607e-05 -2.98852e-05 0)
(8.2875e-05 -2.14918e-05 0)
(8.70739e-05 -1.0247e-05 0)
(8.18723e-05 2.97072e-06 0)
(6.60693e-05 1.74877e-05 0)
(3.88566e-05 3.27929e-05 0)
(-2.60886e-07 4.84991e-05 0)
(-5.15304e-05 6.43133e-05 0)
(-0.000115004 8.00137e-05 0)
(-0.000190583 9.54326e-05 0)
(-0.000278047 0.000110444 0)
(-0.000377088 0.000124954 0)
(-0.000487324 0.000138893 0)
(-0.000608326 0.000152213 0)
(-0.000739623 0.000164882 0)
(-0.000880718 0.000176876 0)
(-0.0010311 0.000188187 0)
(-0.00119024 0.00019881 0)
(-0.00135761 0.000208748 0)
(-0.00153269 0.00021801 0)
(-0.00171495 0.000226605 0)
(-0.00190388 0.00023455 0)
(-0.00209896 0.000241859 0)
(-0.0022997 0.000248551 0)
(-0.00250563 0.000254645 0)
(-0.00271625 0.000260158 0)
(-0.00293113 0.000265111 0)
(-0.00314982 0.000269522 0)
(-0.00337188 0.00027341 0)
(-0.0035969 0.000276793 0)
(-0.00382447 0.000279687 0)
(-0.00405421 0.000282109 0)
(-0.00428574 0.000284074 0)
(-0.00451868 0.000285596 0)
(-0.00475268 0.000286688 0)
(-0.00498739 0.000287361 0)
(-0.00522246 0.000287625 0)
(-0.00545757 0.00028749 0)
(-0.00569239 0.000286965 0)
(-0.0059266 0.000286055 0)
(-0.00615989 0.000284766 0)
(-0.00639193 0.000283104 0)
(-0.00662243 0.000281073 0)
(-0.00685108 0.000278674 0)
(-0.00707758 0.000275912 0)
(-0.00730163 0.000272786 0)
(-0.00752292 0.000269297 0)
(-0.00774116 0.000265447 0)
(-0.00795606 0.000261234 0)
(-0.00816731 0.000256659 0)
(-0.00837461 0.00025172 0)
(-0.00857767 0.000246416 0)
(-0.00877619 0.000240748 0)
(-0.00896987 0.000234712 0)
(-0.0091584 0.00022831 0)
(-0.00934149 0.000221541 0)
(-0.00951885 0.000214403 0)
(-0.00969016 0.000206899 0)
(-0.00985515 0.000199027 0)
(-0.0100135 0.000190791 0)
(-0.0101649 0.000182193 0)
(-0.0103091 0.000173234 0)
(-0.0104458 0.00016392 0)
(-0.0105747 0.000154255 0)
(-0.0106956 0.000144244 0)
(-0.0108081 0.000133896 0)
(-0.010912 0.000123218 0)
(-0.011007 0.000112218 0)
(-0.0110929 0.000100909 0)
(-0.0111694 8.93014e-05 0)
(-0.0112364 7.74085e-05 0)
(-0.0112935 6.52449e-05 0)
(-0.0113406 5.28265e-05 0)
(-0.0113775 4.01704e-05 0)
(-0.011404 2.72954e-05 0)
(-0.01142 1.42214e-05 0)
(-0.0114252 9.6985e-07 0)
(-0.0114196 -1.24365e-05 0)
(-0.0114031 -2.59736e-05 0)
(-0.0113755 -3.96159e-05 0)
(-0.0113369 -5.3337e-05 0)
(-0.011287 -6.71089e-05 0)
(-0.0112261 -8.09026e-05 0)
(-0.0111539 -9.46881e-05 0)
(-0.0110706 -0.000108434 0)
(-0.0109763 -0.000122109 0)
(-0.0108709 -0.00013568 0)
(-0.0107545 -0.000149112 0)
(-0.0106274 -0.000162373 0)
(-0.0104897 -0.000175428 0)
(-0.0103415 -0.00018824 0)
(-0.0101832 -0.000200775 0)
(-0.0100148 -0.000212998 0)
(-0.00983666 -0.000224872 0)
(-0.00964913 -0.000236364 0)
(-0.00945251 -0.000247436 0)
(-0.00924714 -0.000258056 0)
(-0.00903341 -0.000268188 0)
(-0.00881173 -0.0002778 0)
(-0.00858252 -0.00028686 0)
(-0.00834625 -0.000295335 0)
(-0.0081034 -0.000303197 0)
(-0.00785447 -0.000310415 0)
(-0.00759999 -0.000316964 0)
(-0.00734051 -0.000322816 0)
(-0.00707659 -0.00032795 0)
(-0.00680883 -0.000332342 0)
(-0.00653783 -0.000335973 0)
(-0.00626419 -0.000338826 0)
(-0.00598856 -0.000340884 0)
(-0.00571157 -0.000342135 0)
(-0.00543387 -0.000342569 0)
(-0.00515612 -0.000342177 0)
(-0.00487899 -0.000340955 0)
(-0.00460313 -0.000338899 0)
(-0.00432922 -0.00033601 0)
(-0.00405791 -0.000332291 0)
(-0.00378988 -0.000327748 0)
(-0.00352577 -0.000322389 0)
(-0.00326622 -0.000316226 0)
(-0.00301189 -0.000309274 0)
(-0.00276339 -0.000301549 0)
(-0.00252132 -0.000293072 0)
(-0.00228628 -0.000283867 0)
(-0.00205884 -0.000273958 0)
(-0.00183955 -0.000263376 0)
(-0.00162892 -0.000252151 0)
(-0.00142747 -0.000240319 0)
(-0.00123565 -0.000227916 0)
(-0.00105389 -0.000214984 0)
(-0.000882613 -0.000201566 0)
(-0.000722168 -0.000187709 0)
(-0.000572883 -0.000173463 0)
(-0.000435042 -0.000158881 0)
(-0.000308881 -0.000144022 0)
(-0.00019459 -0.000128945 0)
(-9.23042e-05 -0.000113719 0)
(-2.104e-06 -9.84156e-05 0)
(7.59919e-05 -8.31119e-05 0)
(0.000142031 -6.78941e-05 0)
(0.000196134 -5.28565e-05 0)
(0.000238501 -3.8104e-05 0)
(0.00026942 -2.37544e-05 0)
(0.000289281 -9.94112e-06 0)
(0.00029858 3.18299e-06 0)
(0.000297945 1.54409e-05 0)
(0.000288143 2.66259e-05 0)
(0.000270107 3.64941e-05 0)
(0.000244958 4.47556e-05 0)
(0.000214031 5.10649e-05 0)
(0.000178905 5.50121e-05 0)
(0.000141427 5.61187e-05 0)
(0.000103729 5.38547e-05 0)
(6.81724e-05 4.77011e-05 0)
(3.72557e-05 3.72912e-05 0)
(1.40312e-05 2.2794e-05 0)
(2.39364e-06 6.24405e-06 0)
(3.51004e-06 -1.91384e-05 0)
(1.57221e-05 -4.29371e-05 0)
(3.44835e-05 -5.35206e-05 0)
(5.31576e-05 -5.29538e-05 0)
(6.71795e-05 -4.35002e-05 0)
(7.33635e-05 -2.72408e-05 0)
(6.91472e-05 -5.94364e-06 0)
(5.25364e-05 1.89512e-05 0)
(2.20655e-05 4.62977e-05 0)
(-2.32873e-05 7.5196e-05 0)
(-8.41768e-05 0.000104943 0)
(-0.000160957 0.000134994 0)
(-0.00025374 0.000164924 0)
(-0.00036244 0.000194407 0)
(-0.000486816 0.000223193 0)
(-0.000626504 0.000251091 0)
(-0.000781045 0.000277959 0)
(-0.000949903 0.000303692 0)
(-0.00113249 0.000328217 0)
(-0.00132817 0.000351485 0)
(-0.00153629 0.000373465 0)
(-0.00175618 0.000394146 0)
(-0.00198714 0.000413525 0)
(-0.00222848 0.000431611 0)
(-0.00247952 0.000448421 0)
(-0.00273957 0.000463978 0)
(-0.00300796 0.000478309 0)
(-0.00328402 0.000491445 0)
(-0.00356712 0.000503417 0)
(-0.00385662 0.00051426 0)
(-0.0041519 0.000524008 0)
(-0.00445236 0.000532697 0)
(-0.00475742 0.000540358 0)
(-0.00506652 0.000547027 0)
(-0.0053791 0.000552733 0)
(-0.00569463 0.000557508 0)
(-0.00601259 0.000561379 0)
(-0.00633248 0.000564373 0)
(-0.00665379 0.000566513 0)
(-0.00697605 0.000567821 0)
(-0.0072988 0.000568318 0)
(-0.00762157 0.000568021 0)
(-0.0079439 0.000566946 0)
(-0.00826536 0.000565106 0)
(-0.00858551 0.000562512 0)
(-0.00890392 0.000559173 0)
(-0.00922017 0.000555099 0)
(-0.00953382 0.000550294 0)
(-0.00984448 0.000544763 0)
(-0.0101517 0.00053851 0)
(-0.0104551 0.000531536 0)
(-0.0107542 0.000523842 0)
(-0.0110487 0.00051543 0)
(-0.0113381 0.000506298 0)
(-0.0116221 0.000496446 0)
(-0.0119001 0.000485872 0)
(-0.0121718 0.000474576 0)
(-0.0124369 0.000462556 0)
(-0.0126948 0.000449812 0)
(-0.0129451 0.000436344 0)
(-0.0131875 0.000422153 0)
(-0.0134216 0.000407239 0)
(-0.0136469 0.000391606 0)
(-0.0138631 0.000375256 0)
(-0.0140697 0.000358197 0)
(-0.0142663 0.000340433 0)
(-0.0144526 0.000321974 0)
(-0.0146282 0.00030283 0)
(-0.0147927 0.000283014 0)
(-0.0149457 0.000262539 0)
(-0.0150869 0.000241422 0)
(-0.0152159 0.000219682 0)
(-0.0153323 0.000197341 0)
(-0.015436 0.000174421 0)
(-0.0155264 0.000150951 0)
(-0.0156035 0.000126958 0)
(-0.0156668 0.000102473 0)
(-0.0157161 7.75325e-05 0)
(-0.0157512 5.21717e-05 0)
(-0.0157719 2.64305e-05 0)
(-0.015778 3.51096e-07 0)
(-0.0157693 -2.60217e-05 0)
(-0.0157456 -5.26407e-05 0)
(-0.015707 -7.9456e-05 0)
(-0.0156531 -0.000106415 0)
(-0.0155841 -0.000133465 0)
(-0.0154999 -0.000160547 0)
(-0.0154005 -0.000187603 0)
(-0.0152859 -0.000214573 0)
(-0.0151562 -0.000241394 0)
(-0.0150116 -0.000268003 0)
(-0.0148521 -0.000294333 0)
(-0.014678 -0.00032032 0)
(-0.0144894 -0.000345894 0)
(-0.0142866 -0.000370988 0)
(-0.01407 -0.000395534 0)
(-0.0138398 -0.000419463 0)
(-0.0135964 -0.000442705 0)
(-0.0133403 -0.000465193 0)
(-0.0130718 -0.000486859 0)
(-0.0127914 -0.000507636 0)
(-0.0124998 -0.000527457 0)
(-0.0121973 -0.000546259 0)
(-0.0118846 -0.00056398 0)
(-0.0115624 -0.000580559 0)
(-0.0112312 -0.000595937 0)
(-0.0108918 -0.000610059 0)
(-0.0105448 -0.000622874 0)
(-0.0101911 -0.000634331 0)
(-0.00983136 -0.000644385 0)
(-0.00946638 -0.000652994 0)
(-0.00909697 -0.000660119 0)
(-0.00872398 -0.000665727 0)
(-0.00834825 -0.000669788 0)
(-0.00797064 -0.000672278 0)
(-0.00759204 -0.000673176 0)
(-0.00721332 -0.000672468 0)
(-0.00683537 -0.000670143 0)
(-0.0064591 -0.000666196 0)
(-0.00608539 -0.000660629 0)
(-0.00571514 -0.000653447 0)
(-0.00534924 -0.000644663 0)
(-0.00498858 -0.000634293 0)
(-0.00463401 -0.00062236 0)
(-0.0042864 -0.000608892 0)
(-0.00394657 -0.000593924 0)
(-0.00361536 -0.000577496 0)
(-0.00329354 -0.000559652 0)
(-0.00298189 -0.000540445 0)
(-0.00268114 -0.00051993 0)
(-0.00239199 -0.00049817 0)
(-0.00211511 -0.000475233 0)
(-0.00185112 -0.000451194 0)
(-0.0016006 -0.000426131 0)
(-0.00136409 -0.000400132 0)
(-0.00114207 -0.000373288 0)
(-0.00093498 -0.000345698 0)
(-0.000743182 -0.000317467 0)
(-0.000566991 -0.000288711 0)
(-0.000406652 -0.000259549 0)
(-0.000262337 -0.000230115 0)
(-0.000134144 -0.000200549 0)
(-2.20858e-05 -0.000171006 0)
(7.39143e-05 -0.000141653 0)
(0.00015403 -0.000112676 0)
(0.000218542 -8.4279e-05 0)
(0.000267849 -5.66903e-05 0)
(0.00030248 -3.01662e-05 0)
(0.000323105 -4.99764e-06 0)
(0.000330558 1.8483e-05 0)
(0.000325851 3.98931e-05 0)
(0.000310196 5.87898e-05 0)
(0.000285028 7.46591e-05 0)
(0.00025203 8.69057e-05 0)
(0.000213154 9.48466e-05 0)
(0.000170639 9.77171e-05 0)
(0.00012702 9.47056e-05 0)
(8.50602e-05 8.50473e-05 0)
(4.76743e-05 6.82058e-05 0)
(1.86598e-05 4.42607e-05 0)
(3.41098e-06 1.49515e-05 0)
(3.32539e-06 -2.75592e-05 0)
(1.4363e-05 -5.90661e-05 0)
(3.01865e-05 -7.10166e-05 0)
(4.38792e-05 -6.70067e-05 0)
(5.06356e-05 -5.02516e-05 0)
(4.70605e-05 -2.36067e-05 0)
(3.04077e-05 1.04902e-05 0)
(-1.48786e-06 5.002e-05 0)
(-5.02487e-05 9.33389e-05 0)
(-0.000117032 0.000139124 0)
(-0.0002026 0.000186321 0)
(-0.000307386 0.00023409 0)
(-0.000431546 0.00028177 0)
(-0.000575011 0.000328841 0)
(-0.000737526 0.000374897 0)
(-0.00091869 0.000419624 0)
(-0.00111798 0.000462785 0)
(-0.00133478 0.0005042 0)
(-0.00156841 0.000543739 0)
(-0.00181813 0.000581314 0)
(-0.00208315 0.000616865 0)
(-0.00236267 0.000650363 0)
(-0.00265587 0.000681795 0)
(-0.00296191 0.000711168 0)
(-0.00327997 0.000738502 0)
(-0.0036092 0.000763827 0)
(-0.0039488 0.00078718 0)
(-0.00429794 0.000808604 0)
(-0.00465584 0.000828148 0)
(-0.00502171 0.000845863 0)
(-0.00539479 0.000861799 0)
(-0.00577434 0.000876009 0)
(-0.00615964 0.000888545 0)
(-0.00654997 0.000899458 0)
(-0.00694465 0.000908796 0)
(-0.007343 0.000916605 0)
(-0.00774439 0.00092293 0)
(-0.00814816 0.000927812 0)
(-0.00855369 0.000931288 0)
(-0.00896039 0.000933394 0)
(-0.00936765 0.00093416 0)
(-0.0097749 0.000933615 0)
(-0.0101816 0.000931783 0)
(-0.0105871 0.000928686 0)
(-0.0109909 0.000924343 0)
(-0.0113924 0.000918769 0)
(-0.0117912 0.000911977 0)
(-0.0121866 0.000903976 0)
(-0.0125782 0.000894776 0)
(-0.0129654 0.000884381 0)
(-0.0133477 0.000872797 0)
(-0.0137245 0.000860024 0)
(-0.0140954 0.000846065 0)
(-0.0144598 0.000830921 0)
(-0.0148172 0.000814589 0)
(-0.0151671 0.000797071 0)
(-0.015509 0.000778365 0)
(-0.0158423 0.000758471 0)
(-0.0161666 0.000737388 0)
(-0.0164812 0.000715119 0)
(-0.0167858 0.000691664 0)
(-0.0170798 0.000667029 0)
(-0.0173627 0.000641217 0)
(-0.0176339 0.000614238 0)
(-0.0178931 0.000586099 0)
(-0.0181396 0.000556814 0)
(-0.018373 0.000526398 0)
(-0.0185929 0.000494868 0)
(-0.0187987 0.000462245 0)
(-0.0189901 0.000428555 0)
(-0.0191665 0.000393825 0)
(-0.0193275 0.000358087 0)
(-0.0194727 0.000321377 0)
(-0.0196018 0.000283735 0)
(-0.0197143 0.000245204 0)
(-0.0198098 0.000205832 0)
(-0.0198881 0.000165672 0)
(-0.0199488 0.00012478 0)
(-0.0199917 8.32155e-05 0)
(-0.0200164 4.10448e-05 0)
(-0.0200228 -1.66341e-06 0)
(-0.0200106 -4.48359e-05 0)
(-0.0199797 -8.83954e-05 0)
(-0.0199299 -0.000132261 0)
(-0.0198612 -0.000176346 0)
(-0.0197735 -0.000220564 0)
(-0.0196667 -0.000264821 0)
(-0.0195409 -0.000309023 0)
(-0.0193961 -0.00035307 0)
(-0.0192324 -0.000396862 0)
(-0.01905 -0.000440295 0)
(-0.0188491 -0.000483263 0)
(-0.0186299 -0.000525659 0)
(-0.0183926 -0.000567373 0)
(-0.0181377 -0.000608296 0)
(-0.0178654 -0.000648316 0)
(-0.0175762 -0.000687323 0)
(-0.0172705 -0.000725206 0)
(-0.0169489 -0.000761853 0)
(-0.016612 -0.000797157 0)
(-0.0162602 -0.000831008 0)
(-0.0158943 -0.000863301 0)
(-0.0155149 -0.000893933 0)
(-0.0151228 -0.000922803 0)
(-0.0147188 -0.000949813 0)
(-0.0143036 -0.000974871 0)
(-0.0138782 -0.000997887 0)
(-0.0134433 -0.00101878 0)
(-0.013 -0.00103746 0)
(-0.0125491 -0.00105387 0)
(-0.0120917 -0.00106793 0)
(-0.0116287 -0.00107958 0)
(-0.0111613 -0.00108877 0)
(-0.0106903 -0.00109545 0)
(-0.010217 -0.00109958 0)
(-0.00974236 -0.00110113 0)
(-0.00926752 -0.00110007 0)
(-0.00879356 -0.0010964 0)
(-0.00832161 -0.0010901 0)
(-0.00785276 -0.00108117 0)
(-0.00738812 -0.00106963 0)
(-0.0069288 -0.00105549 0)
(-0.00647587 -0.00103878 0)
(-0.00603042 -0.00101954 0)
(-0.0055935 -0.000997819 0)
(-0.00516615 -0.000973668 0)
(-0.00474937 -0.000947153 0)
(-0.00434413 -0.000918349 0)
(-0.0039514 -0.000887339 0)
(-0.00357207 -0.000854216 0)
(-0.00320701 -0.000819082 0)
(-0.00285703 -0.000782048 0)
(-0.00252291 -0.000743236 0)
(-0.00220536 -0.000702775 0)
(-0.00190504 -0.000660807 0)
(-0.00162255 -0.000617483 0)
(-0.0013584 -0.000572965 0)
(-0.00111305 -0.000527427 0)
(-0.000886886 -0.000481053 0)
(-0.000680192 -0.000434045 0)
(-0.000493176 -0.000386617 0)
(-0.000325947 -0.000339 0)
(-0.000178513 -0.000291447 0)
(-5.07683e-05 -0.000244229 0)
(5.75094e-05 -0.000197648 0)
(0.000146674 -0.000152031 0)
(0.000217222 -0.000107745 0)
(0.000269804 -6.5197e-05 0)
(0.000305239 -2.4845e-05 0)
(0.000324534 1.2794e-05 0)
(0.0003289 4.71325e-05 0)
(0.000319773 7.7502e-05 0)
(0.000298832 0.000103141 0)
(0.000268021 0.000123185 0)
(0.000229564 0.000136669 0)
(0.00018598 0.000142533 0)
(0.0001401 0.000139676 0)
(9.49962e-05 0.000127048 0)
(5.39528e-05 0.000103826 0)
(2.1424e-05 6.97212e-05 0)
(3.98849e-06 2.56408e-05 0)
(2.82604e-06 -3.47844e-05 0)
(1.13671e-05 -7.19354e-05 0)
(2.1884e-05 -8.30618e-05 0)
(2.77013e-05 -7.32417e-05 0)
(2.40253e-05 -4.66816e-05 0)
(7.38079e-06 -7.03134e-06 0)
(-2.50464e-05 4.25976e-05 0)
(-7.54878e-05 9.96043e-05 0)
(-0.000145636 0.000161841 0)
(-0.000236715 0.00022755 0)
(-0.000349544 0.000295302 0)
(-0.0004846 0.000363947 0)
(-0.000642065 0.000432558 0)
(-0.000821873 0.000500398 0)
(-0.00102376 0.000566883 0)
(-0.00124728 0.000631557 0)
(-0.00149188 0.000694064 0)
(-0.00175687 0.000754136 0)
(-0.00204148 0.000811574 0)
(-0.00234487 0.000866233 0)
(-0.00266618 0.00091802 0)
(-0.00300448 0.000966877 0)
(-0.00335883 0.00101278 0)
(-0.00372827 0.00105572 0)
(-0.00411185 0.00109572 0)
(-0.0045086 0.00113282 0)
(-0.00491757 0.00116706 0)
(-0.00533782 0.00119849 0)
(-0.00576841 0.00122719 0)
(-0.00620843 0.00125322 0)
(-0.00665699 0.00127665 0)
(-0.0071132 0.00129755 0)
(-0.00757622 0.00131599 0)
(-0.00804519 0.00133205 0)
(-0.00851931 0.00134578 0)
(-0.00899778 0.00135726 0)
(-0.00947981 0.00136654 0)
(-0.00996465 0.00137369 0)
(-0.0104516 0.00137876 0)
(-0.0109398 0.00138179 0)
(-0.0114286 0.00138284 0)
(-0.0119174 0.00138193 0)
(-0.0124054 0.00137912 0)
(-0.012892 0.00137442 0)
(-0.0133765 0.00136788 0)
(-0.0138581 0.00135949 0)
(-0.0143364 0.0013493 0)
(-0.0148106 0.00133731 0)
(-0.0152801 0.00132354 0)
(-0.0157442 0.00130799 0)
(-0.0162024 0.00129067 0)
(-0.0166539 0.00127158 0)
(-0.0170983 0.00125074 0)
(-0.0175347 0.00122814 0)
(-0.0179627 0.00120377 0)
(-0.0183816 0.00117765 0)
(-0.0187907 0.00114978 0)
(-0.0191895 0.00112014 0)
(-0.0195773 0.00108875 0)
(-0.0199535 0.00105561 0)
(-0.0203176 0.00102072 0)
(-0.0206688 0.000984089 0)
(-0.0210067 0.00094573 0)
(-0.0213305 0.000905652 0)
(-0.0216398 0.000863872 0)
(-0.0219338 0.00082041 0)
(-0.0222121 0.000775289 0)
(-0.0224741 0.000728537 0)
(-0.0227192 0.000680187 0)
(-0.0229469 0.000630276 0)
(-0.0231567 0.000578847 0)
(-0.023348 0.000525949 0)
(-0.0235204 0.000471635 0)
(-0.0236733 0.000415964 0)
(-0.0238065 0.000359003 0)
(-0.0239194 0.000300821 0)
(-0.0240116 0.000241498 0)
(-0.0240828 0.000181116 0)
(-0.0241326 0.000119766 0)
(-0.0241608 5.75428e-05 0)
(-0.024167 -5.45092e-06 0)
(-0.0241512 -6.91073e-05 0)
(-0.0241129 -0.000133313 0)
(-0.0240522 -0.000197947 0)
(-0.0239689 -0.000262887 0)
(-0.0238629 -0.000328001 0)
(-0.0237342 -0.000393154 0)
(-0.0235829 -0.000458206 0)
(-0.0234089 -0.000523015 0)
(-0.0232126 -0.000587431 0)
(-0.0229939 -0.000651303 0)
(-0.0227533 -0.000714477 0)
(-0.0224908 -0.000776796 0)
(-0.0222069 -0.000838101 0)
(-0.021902 -0.000898232 0)
(-0.0215765 -0.000957026 0)
(-0.021231 -0.00101432 0)
(-0.0208658 -0.00106996 0)
(-0.0204818 -0.00112378 0)
(-0.0200794 -0.00117562 0)
(-0.0196596 -0.00122532 0)
(-0.0192229 -0.00127274 0)
(-0.0187702 -0.00131771 0)
(-0.0183025 -0.0013601 0)
(-0.0178205 -0.00139977 0)
(-0.0173254 -0.00143657 0)
(-0.016818 -0.00147038 0)
(-0.0162994 -0.00150108 0)
(-0.0157707 -0.00152855 0)
(-0.0152331 -0.00155268 0)
(-0.0146876 -0.00157338 0)
(-0.0141355 -0.00159056 0)
(-0.013578 -0.00160414 0)
(-0.0130163 -0.00161406 0)
(-0.0124518 -0.00162025 0)
(-0.0118855 -0.00162266 0)
(-0.011319 -0.00162128 0)
(-0.0107534 -0.00161606 0)
(-0.01019 -0.00160701 0)
(-0.00963024 -0.00159412 0)
(-0.00907533 -0.00157742 0)
(-0.00852657 -0.00155692 0)
(-0.00798525 -0.00153268 0)
(-0.00745264 -0.00150474 0)
(-0.00692997 -0.00147318 0)
(-0.00641847 -0.00143807 0)
(-0.00591931 -0.00139952 0)
(-0.00543365 -0.00135763 0)
(-0.0049626 -0.00131252 0)
(-0.00450722 -0.00126433 0)
(-0.00406854 -0.00121322 0)
(-0.00364751 -0.00115934 0)
(-0.00324502 -0.00110287 0)
(-0.00286193 -0.00104401 0)
(-0.002499 -0.000982955 0)
(-0.00215693 -0.000919939 0)
(-0.00183632 -0.000855198 0)
(-0.00153771 -0.000788985 0)
(-0.00126152 -0.000721576 0)
(-0.00100811 -0.000653263 0)
(-0.000777709 -0.000584362 0)
(-0.000570431 -0.000515214 0)
(-0.000386281 -0.000446186 0)
(-0.000225132 -0.000377675 0)
(-8.67167e-05 -0.000310118 0)
(2.93804e-05 -0.00024399 0)
(0.000123737 -0.000179816 0)
(0.000197107 -0.000118177 0)
(0.000250432 -5.97205e-05 0)
(0.000284859 -5.16909e-06 0)
(0.000301758 4.46656e-05 0)
(0.000302736 8.88721e-05 0)
(0.00028966 0.000126428 0)
(0.000264667 0.000156193 0)
(0.000230181 0.000176907 0)
(0.000188933 0.000187213 0)
(0.000143975 0.000185692 0)
(9.8637e-05 0.000170954 0)
(5.65249e-05 0.000141775 0)
(2.26039e-05 9.72967e-05 0)
(4.23071e-06 3.73488e-05 0)
(2.13255e-06 -4.01136e-05 0)
(7.23476e-06 -7.98678e-05 0)
(1.06332e-05 -8.73685e-05 0)
(6.28213e-06 -6.89986e-05 0)
(-1.03867e-05 -2.99123e-05 0)
(-4.28135e-05 2.54653e-05 0)
(-9.37836e-05 9.33638e-05 0)
(-0.00016551 0.000170613 0)
(-0.000259685 0.000254566 0)
(-0.000377538 0.00034303 0)
(-0.000519902 0.000434201 0)
(-0.000687258 0.000526602 0)
(-0.00087979 0.000619031 0)
(-0.00109742 0.000710519 0)
(-0.00133987 0.000800289 0)
(-0.00160666 0.000887724 0)
(-0.00189717 0.00097234 0)
(-0.00221067 0.00105376 0)
(-0.00254633 0.00113171 0)
(-0.00290322 0.00120598 0)
(-0.00328038 0.00127643 0)
(-0.00367679 0.00134297 0)
(-0.00409141 0.00140554 0)
(-0.00452318 0.00146414 0)
(-0.00497102 0.00151878 0)
(-0.00543386 0.00156949 0)
(-0.00591062 0.00161634 0)
(-0.00640023 0.00165938 0)
(-0.00690166 0.0016987 0)
(-0.00741385 0.00173438 0)
(-0.00793579 0.0017665 0)
(-0.00846648 0.00179517 0)
(-0.00900493 0.00182047 0)
(-0.0095502 0.00184248 0)
(-0.0101013 0.00186131 0)
(-0.0106574 0.00187704 0)
(-0.0112176 0.00188973 0)
(-0.0117809 0.00189948 0)
(-0.0123465 0.00190636 0)
(-0.0129136 0.00191042 0)
(-0.0134813 0.00191172 0)
(-0.0140489 0.00191033 0)
(-0.0146155 0.00190629 0)
(-0.0151804 0.00189964 0)
(-0.0157427 0.00189041 0)
(-0.0163017 0.00187864 0)
(-0.0168566 0.00186436 0)
(-0.0174068 0.00184759 0)
(-0.0179514 0.00182833 0)
(-0.0184896 0.00180662 0)
(-0.0190209 0.00178245 0)
(-0.0195444 0.00175583 0)
(-0.0200594 0.00172678 0)
(-0.0205651 0.00169529 0)
(-0.0210609 0.00166137 0)
(-0.0215461 0.00162502 0)
(-0.0220198 0.00158623 0)
(-0.0224814 0.00154503 0)
(-0.0229302 0.0015014 0)
(-0.0233655 0.00145536 0)
(-0.0237866 0.00140691 0)
(-0.0241926 0.00135607 0)
(-0.0245831 0.00130285 0)
(-0.0249572 0.00124727 0)
(-0.0253143 0.00118936 0)
(-0.0256538 0.00112914 0)
(-0.0259749 0.00106665 0)
(-0.026277 0.00100192 0)
(-0.0265595 0.000935015 0)
(-0.0268218 0.000865976 0)
(-0.0270632 0.000794867 0)
(-0.0272832 0.000721755 0)
(-0.0274813 0.000646715 0)
(-0.0276569 0.000569832 0)
(-0.0278095 0.000491196 0)
(-0.0279386 0.000410906 0)
(-0.0280438 0.00032907 0)