/*--------------------------------*- C++ -*----------------------------------*\
| =========                 |                                                 |
| \\      /  F ield         | OpenFOAM: The Open Source CFD Toolbox           |
|  \\    /   O peration     | Version:  2.1.1                                 |
|   \\  /    A nd           | Web:      www.OpenFOAM.org                      |
|    \\/     M anipulation  |                                                 |
\*---------------------------------------------------------------------------*/
FoamFile
{
    version     2.0;
    format      ascii;
    class       volScalarField;
    location    "1.5";
    object      p;
}
// * * * * * * * * * * * * * * * * * * * * * * * * * * * * * * * * * * * * * //

dimensions      [0 2 -2 0 0 0 0];

internalField   nonuniform List<scalar> 
6561
(
5.56843e-09
-2.14613e-06
-6.41651e-05
-0.000183512
-0.000345842
-0.000538185
-0.000749166
-0.000969118
-0.00119008
-0.00140569
-0.00161094
-0.00180188
-0.00197551
-0.00212955
-0.00226227
-0.00237244
-0.00245914
-0.00252174
-0.00255981
-0.00257303
-0.00256122
-0.00252424
-0.00246203
-0.00237456
-0.00226184
-0.00212393
-0.00196094
-0.00177306
-0.00156054
-0.00132377
-0.00106324
-0.000779592
-0.000473631
-0.000146355
0.000201036
0.000567125
0.000950261
0.00134856
0.00175988
0.00218185
0.00261186
0.00304708
0.00348447
0.00392079
0.00435267
0.00477661
0.00518903
0.00558632
0.00596488
0.0063212
0.00665186
0.00695366
0.00722362
0.00745906
0.00765765
0.00781748
0.00793709
0.00801551
0.0080523
0.00804758
0.00800205
0.00791701
0.00779432
0.00763648
0.00744652
0.00722806
0.00698524
0.00672271
0.00644561
0.00615955
0.00587041
0.00558481
0.0053094
0.00505132
0.00481798
0.00461696
0.00445569
0.00434079
0.00427703
0.00426599
0.0042951
2.11783e-06
-3.17773e-08
-5.4881e-05
-0.000156224
-0.000292319
-0.000453982
-0.000632515
-0.000820182
-0.00101025
-0.0011971
-0.00137615
-0.00154369
-0.00169676
-0.00183308
-0.00195083
-0.00204868
-0.00212557
-0.00218076
-0.00221366
-0.00222387
-0.0022111
-0.00217513
-0.00211583
-0.00203313
-0.00192699
-0.00179745
-0.00164462
-0.00146866
-0.00126985
-0.00104854
-0.000805221
-0.000540527
-0.000255238
4.96879e-05
0.000373106
0.00071367
0.00106982
0.00143978
0.00182156
0.00221294
0.0026115
0.0030146
0.00341944
0.00382303
0.00422228
0.00461397
0.00499482
0.00536154
0.00571084
0.00603951
0.00634449
0.00662284
0.0068719
0.00708926
0.00727285
0.00742097
0.00753236
0.00760619
0.00764213
0.00764037
0.00760162
0.00752713
0.00741872
0.00727869
0.00710992
0.00691575
0.00670002
0.00646702
0.00622147
0.00596844
0.00571335
0.00546197
0.00522026
0.00499438
0.00479058
0.00461501
0.00447346
0.00437058
0.00430962
0.00429483
0.00432411
6.43046e-05
5.46912e-05
-5.7188e-07
-9.43611e-05
-0.000216874
-0.000360817
-0.000519316
-0.000685957
-0.000855052
-0.00102172
-0.00118188
-0.00133214
-0.00146975
-0.00159251
-0.00169867
-0.00178687
-0.00185603
-0.00190535
-0.00193421
-0.00194213
-0.00192877
-0.00189386
-0.00183722
-0.00175874
-0.00165836
-0.00153608
-0.001392
-0.00122625
-0.00103908
-0.00083084
-0.000601985
-0.000353114
-8.49696e-05
0.000201539
0.000505327
0.000825122
0.00115945
0.00150665
0.00186482
0.0022319
0.00260561
0.00298348
0.00336288
0.00374103
0.00411501
0.00448184
0.00483846
0.00518178
0.00550877
0.00581643
0.00610192
0.00636252
0.00659578
0.00679946
0.00697168
0.00711088
0.00721593
0.00728609
0.00732112
0.00732123
0.00728713
0.00722006
0.00712173
0.00699435
0.00684064
0.00666376
0.00646729
0.00625524
0.00603197
0.00580217
0.00557081
0.0053431
0.00512439
0.00492013
0.00473576
0.00457655
0.00444739
0.00435216
0.00429391
0.00427966
0.00431356
0.000184865
0.000156423
9.22233e-05
-2.49837e-06
-0.000120698
-0.000256298
-0.000403588
-0.000557247
-0.000712498
-0.000865172
-0.00101171
-0.00114913
-0.00127496
-0.00138719
-0.0014842
-0.00156471
-0.00162768
-0.00167233
-0.00169802
-0.00170426
-0.0016907
-0.00165703
-0.00160304
-0.0015286
-0.00143361
-0.00131805
-0.00118198
-0.0010255
-0.000848835
-0.000652285
-0.000436274
-0.000201351
5.17922e-05
0.000322308
0.000609179
0.000911211
0.00122702
0.00155503
0.00189347
0.00224038
0.0025936
0.00295081
0.00330952
0.0036671
0.00402079
0.00436777
0.00470513
0.00502997
0.0053394
0.0056306
0.00590086
0.00614764
0.00636859
0.00656164
0.00672498
0.00685718
0.00695717
0.00702428
0.0070583
0.00705947
0.00702849
0.00696654
0.00687529
0.00675687
0.00661384
0.00644921
0.00626638
0.00606912
0.0058615
0.00564789
0.00543288
0.00522125
0.00501788
0.00482766
0.00465546
0.00450598
0.00438363
0.00429201
0.00423432
0.00421871
0.00425148
0.000350523
0.000294127
0.000214298
0.000112897
-6.6616e-06
-0.000139377
-0.000280513
-0.000425762
-0.00057121
-0.00071339
-0.0008493
-0.000976389
-0.00109252
-0.00119594
-0.00128521
-0.00135917
-0.00141687
-0.00145758
-0.0014807
-0.00148576
-0.00147237
-0.00144025
-0.00138916
-0.00131893
-0.00122944
-0.00112064
-0.000992543
-0.000845225
-0.000678853
-0.000493687
-0.000290096
-6.8571e-05
0.00017026
0.00042562
0.000696568
0.000981994
0.00128061
0.00159093
0.00191129
0.00223984
0.00257455
0.00291322
0.00325347
0.00359282
0.00392864
0.00425823
0.00457882
0.00488765
0.00518194
0.005459
0.00571624
0.00595123
0.00616171
0.0063457
0.00650149
0.00662769
0.00672329
0.00678767
0.00682061
0.00682238
0.00679364
0.00673556
0.00664972
0.00653817
0.00640337
0.00624818
0.00607583
0.00588986
0.00569413
0.0054927
0.00528984
0.00508995
0.00489748
0.0047169
0.00455257
0.00440876
0.00428944
0.00419802
0.00413769
0.00411621
0.00413969
0.000549254
0.00045923
0.000358739
0.00024605
0.000120511
-1.38423e-05
-0.000153106
-0.000293905
-0.000433136
-0.000568007
-0.000696072
-0.000815236
-0.000923727
-0.00102007
-0.00110305
-0.00117167
-0.00122511
-0.00126273
-0.00128397
-0.0012884
-0.00127566
-0.00124546
-0.00119754
-0.00113172
-0.00104786
-0.000945871
-0.000825711
-0.000687421
-0.000531113
-0.000356991
-0.000165359
4.33577e-05
0.000268605
0.000509684
0.00076574
0.00103575
0.00131852
0.00161266
0.00191662
0.00222864
0.00254682
0.00286904
0.00319306
0.00351648
0.00383681
0.00415144
0.00445771
0.00475295
0.00503448
0.0052997
0.0055461
0.00577131
0.00597315
0.00614969
0.00629926
0.00642051
0.00651245
0.00657447
0.00660638
0.00660839
0.00658118
0.00652584
0.00644391
0.00633735
0.00620854
0.00606019
0.00589539
0.00571751
0.00553017
0.00533721
0.00514261
0.00495045
0.00476482
0.0045898
0.00442938
0.0042874
0.0041675
0.00407284
0.00400652
0.00397484
0.00398253
0.000770303
0.000643265
0.000518768
0.000391256
0.000256016
0.000116279
-2.47536e-05
-0.000164549
-0.000300757
-0.000431219
-0.000554035
-0.000667565
-0.000770415
-0.000861416
-0.000939596
-0.00100415
-0.00105442
-0.00108985
-0.00110998
-0.00111443
-0.00110286
-0.001075
-0.00103059
-0.000969426
-0.000891341
-0.000796207
-0.000683947
-0.000554543
-0.000408049
-0.000244603
-6.44392e-05
0.000132095
0.000344525
0.000572239
0.000814471
0.00107029
0.0013386
0.00161811
0.00190737
0.00220472
0.00250834
0.00281623
0.00312624
0.00343607
0.00374329
0.00404539
0.00433979
0.00462387
0.00489504
0.00515072
0.00538847
0.00560595
0.00580101
0.00597174
0.00611649
0.00623391
0.00632302
0.00638318
0.0064142
0.00641625
0.00638998
0.00633643
0.00625708
0.00615383
0.00602894
0.00588505
0.00572509
0.00555229
0.00537011
0.00518215
0.00499217
0.00480397
0.00462137
0.00444812
0.00428788
0.00414414
0.00402022
0.00391908
0.00384362
0.00379816
0.00378545
0.00100421
0.000838475
0.000687756
0.000542862
0.00039512
0.000247094
0.000101392
-4.02137e-05
-0.000176061
-0.000304591
-0.000424422
-0.000534362
-0.000633396
-0.00072067
-0.000795472
-0.000857206
-0.000905375
-0.000939556
-0.000959382
-0.000964534
-0.000954719
-0.000929674
-0.000889156
-0.000832942
-0.000760837
-0.000672674
-0.000568329
-0.000447726
-0.000310854
-0.000157778
1.13458e-05
0.000196253
0.000396559
0.000611741
0.000841128
0.00108389
0.00133901
0.00160533
0.00188145
0.00216584
0.00245676
0.00275229
0.00305037
0.00334876
0.00364511
0.00393696
0.00422178
0.00449701
0.00476007
0.00500842
0.00523962
0.00545134
0.00564145
0.005808
0.00594934
0.0060641
0.00615126
0.00621017
0.00624058
0.00624263
0.00621692
0.00616444
0.00608661
0.00598526
0.00586256
0.00572106
0.00556359
0.00539326
0.00521335
0.00502732
0.00483873
0.00465117
0.0044682
0.00429332
0.00412992
0.0039812
0.00385017
0.00373963
0.00365227
0.00359021
0.00355398
0.0012427
0.00103765
0.000859417
0.000695395
0.000533122
0.000374614
0.000221981
7.63119e-05
-6.1364e-05
-0.000190043
-0.000308836
-0.000416986
-0.000513847
-0.000598884
-0.000671646
-0.000731757
-0.000778892
-0.000812764
-0.000833113
-0.000839688
-0.000832248
-0.000810554
-0.000774367
-0.000723453
-0.000657589
-0.000576568
-0.000480214
-0.000368388
-0.000241009
-9.80625e-05
6.03784e-05
0.00023414
0.000422931
0.000626327
0.000843754
0.00107448
0.0013176
0.00157202
0.00183647
0.00210948
0.00238941
0.00267441
0.00296249
0.00325146
0.00353904
0.00382279
0.00410023
0.00436878
0.0046259
0.00486903
0.00509573
0.00530364
0.00549058
0.0056546
0.00579397
0.0059073
0.00599351
0.0060519
0.00608214
0.00608434
0.00605903
0.00600713
0.00593002
0.00582943
0.00570749
0.00556665
0.00540966
0.0052395
0.00505937
0.00487258
0.00468252
0.00449263
0.00430627
0.00412674
0.00395721
0.00380063
0.00365976
0.00353727
0.00343569
0.00335485
0.00329308
0.00147863
0.00123429
0.0010279
0.00084363
0.000665408
0.000494802
0.000333505
0.000181989
4.07046e-05
-8.98612e-05
-0.000209285
-0.000317219
-0.000413383
-0.000497547
-0.000569525
-0.000629158
-0.000676299
-0.000710804
-0.000732517
-0.000741268
-0.000736865
-0.000719097
-0.000687731
-0.000642522
-0.000583217
-0.000509568
-0.000421339
-0.000318329
-0.000200378
-6.73897e-05
8.06549e-05
0.000243677
0.000421485
0.000613755
0.000820017
0.00103964
0.00127181
0.00151555
0.00176966
0.00203278
0.00230331
0.0025795
0.0028594
0.00314088
0.00342167
0.00369937
0.0039715
0.0042355
0.00448878
0.00472877
0.00495298
0.005159
0.00534461
0.00550778
0.00564672
0.00575995
0.00584631
0.00590504
0.00593574
0.00593843
0.00591357
0.00586202
0.00578507
0.00568441
0.00556208
0.00542046
0.00526224
0.00509031
0.00490777
0.00471783
0.00452379
0.00432893
0.00413649
0.00394961
0.00377128
0.00360427
0.00345115
0.00331451
0.00319676
0.00309551
0.00300695
0.00170566
0.00142249
0.00118776
0.000982602
0.000787498
0.000603647
0.000432391
0.000273645
0.000127323
-6.56455e-06
-0.000128031
-0.00023712
-0.000333896
-0.00041843
-0.000490793
-0.000551039
-0.000599199
-0.000635267
-0.000659198
-0.000670898
-0.000670229
-0.000657004
-0.000630999
-0.000591953
-0.000539583
-0.000473594
-0.000393692
-0.000299603
-0.000191087
-6.79572e-05
6.98997e-05
0.000222507
0.000389776
0.00057149
0.000767286
0.000976634
0.00119883
0.00143298
0.00167799
0.00193257
0.0021952
0.00246418
0.00273761
0.0030134
0.00328931
0.00356294
0.00383179
0.00409327
0.00434478
0.00458368
0.00480742
0.00501353
0.00519967
0.00536374
0.00550386
0.00561843
0.00570622
0.00576633
0.00579829
0.00580203
0.0057779
0.0057267
0.00564963
0.00554831
0.00542473
0.0052812
0.00512033
0.00494496
0.00475814
0.00456299
0.00436273
0.00416057
0.00395964
0.00376298
0.00357347
0.00339376
0.00322624
0.00307353
0.00293799
0.00281508
0.00269896
0.00191816
0.00159686
0.00133394
0.0011076
0.000895058
0.000697193
0.000515046
0.000348018
0.000195534
5.71552e-05
-6.75394e-05
-0.000178965
-0.000277514
-0.000363546
-0.000437376
-0.000499269
-0.000549424
-0.000587975
-0.00061498
-0.000630422
-0.000634212
-0.000626189
-0.000606131
-0.000573761
-0.000528761
-0.000470787
-0.000399481
-0.000314492
-0.000215494
-0.000102208
2.55838e-05
0.000168009
0.00032509
0.00049672
0.000682645
0.000882446
0.00109552
0.00132107
0.0015581
0.00180538
0.00206149
0.00232476
0.00259334
0.00286517
0.00313801
0.00340946
0.00367699
0.00393799
0.00418976
0.00442964
0.00465495
0.00486313
0.00505175
0.00521857
0.00536159
0.00547911
0.00556973
0.00563247
0.0056667
0.00567226
0.00564939
0.00559879
0.00552159
0.00541931
0.00529389
0.00514758
0.00498295
0.00480278
0.00461007
0.00440792
0.0041995
0.00398796
0.00377639
0.00356779
0.00336497
0.00317049
0.00298669
0.00281622
0.0026615
0.00251593
0.00237174
0.00211098
0.00175242
0.00146168
0.00121415
0.000983909
0.00077156
0.000577882
0.000401801
0.000242281
9.84699e-05
-3.0442e-05
-0.000145219
-0.000246566
-0.000335114
-0.000411415
-0.00047593
-0.000529025
-0.000570962
-0.0006019
-0.000621893
-0.000630897
-0.000628773
-0.000615297
-0.000590172
-0.000553041
-0.000503505
-0.000441137
-0.000365508
-0.000276198
-0.000172827
-5.50731e-05
7.7305e-05
0.000224444
0.000386352
0.000562892
0.000753756
0.00095845
0.00117628
0.00140632
0.00164745
0.00189829
0.00215725
0.0024225
0.002692
0.00296351
0.00323462
0.00350276
0.00376525
0.00401935
0.00426226
0.00449122
0.00470355
0.00489667
0.00506821
0.00521602
0.00533822
0.0054333
0.00550008
0.00553783
0.00554623
0.0055254
0.00547593
0.00539884
0.00529559
0.00516804
0.00501837
0.00484913
0.00466306
0.00446314
0.00425246
0.00403417
0.00381142
0.00358731
0.00336481
0.00314675
0.00293566
0.00273385
0.00254411
0.00236898
0.0021999
0.00202724
0.00227938
0.00188455
0.00156652
0.001298
0.00105002
0.000822953
0.00061734
0.000431661
0.000264447
0.000114452
-1.94967e-05
-0.000138495
-0.000243543
-0.00033553
-0.000415231
-0.000483295
-0.000540241
-0.000586454
-0.000622186
-0.000647556
-0.000662558
-0.000667069
-0.000660859
-0.000643606
-0.000614909
-0.000574308
-0.000521305
-0.00045538
-0.000376019
-0.000282736
-0.000175096
-5.27393e-05
8.45901e-05
0.000237024
0.000404543
0.000586957
0.000783885
0.000994731
0.00121868
0.00145467
0.0017014
0.00195734
0.00222068
0.0024894
0.00276125
0.00303381
0.00330444
0.00357041
0.00382886
0.00407691
0.00431167
0.0045303
0.00473007
0.00490843
0.00506305
0.00519188
0.00529322
0.00536572
0.00540847
0.00542098
0.00540324
0.0053557
0.00527927
0.00517531
0.0050456
0.00489229
0.00471787
0.00452508
0.00431688
0.00409639
0.00386677
0.00363121
0.00339284
0.00315469
0.00291962
0.00269022
0.00246883
0.00225844
0.00206175
0.00186835
0.00166681
0.00241896
0.00198891
0.00164425
0.00135508
0.0010895
0.000847671
0.000629909
0.00043427
0.000258877
0.000102108
-3.75553e-05
-0.000161522
-0.00027107
-0.000367336
-0.000451303
-0.000523796
-0.000585477
-0.000636845
-0.000678235
-0.000709824
-0.000731639
-0.000743565
-0.000745359
-0.000736667
-0.00071704
-0.000685952
-0.000642823
-0.000587043
-0.000517995
-0.00043508
-0.000337744
-0.000225504
-9.79757e-05
4.50993e-05
0.00020383
0.000378148
0.000567789
0.000772268
0.000990865
0.00122261
0.00146627
0.00172035
0.0019831
0.00225251
0.00252631
0.00280204
0.00307702
0.00334843
0.00361332
0.00386867
0.00411143
0.00433861
0.00454729
0.00473472
0.00489837
0.00503598
0.00514562
0.00522575
0.00527524
0.00529343
0.00528012
0.00523561
0.00516067
0.00505657
0.00492499
0.00476804
0.00458815
0.00438807
0.00417079
0.00393944
0.00369724
0.00344747
0.00319333
0.00293793
0.00268425
0.00243496
0.00219251
0.00196012
0.00174078
0.00152224
0.00129133
0.00252555
0.00206141
0.00169086
0.00138149
0.00109859
0.00084211
0.000612136
0.000406325
0.000222407
5.84042e-05
-8.7532e-05
-0.000217109
-0.000331872
-0.000433185
-0.000522229
-0.000599993
-0.000667273
-0.000724668
-0.000772589
-0.000811262
-0.000840737
-0.000860902
-0.000871494
-0.000872121
-0.000862277
-0.000841364
-0.000808717
-0.000763627
-0.000705366
-0.000633218
-0.000546502
-0.000444605
-0.000327008
-0.000193317
-4.32887e-05
0.000123139
0.000305826
0.000504403
0.000718255
0.000946503
0.00118799
0.00144128
0.00170466
0.00197612
0.0022534
0.00253399
0.00281515
0.00309397
0.00336738
0.00363223
0.00388529
0.00412338
0.00434338
0.00454231
0.00471741
0.00486616
0.0049864
0.00507634
0.00513462
0.00516034
0.00515311
0.00511304
0.00504076
0.0049374
0.00480454
0.00464423
0.00445887
0.00425123
0.0040243
0.00378128
0.00352549
0.00326029
0.00298901
0.00271492
0.00244113
0.00217046
0.00190552
0.00164986
0.00140674
0.00116216
0.000901214
0.00259521
0.00209814
0.00170253
0.00137353
0.00107369
0.000802768
0.000560637
0.00034456
0.000151888
-1.97035e-05
-0.000172376
-0.000308124
-0.000428742
-0.000535814
-0.000630704
-0.000714554
-0.000788279
-0.000852573
-0.000907911
-0.000954557
-0.000992579
-0.00102186
-0.0010421
-0.00105288
-0.00105361
-0.00104363
-0.00102218
-0.000988434
-0.000941558
-0.000880706
-0.000805065
-0.000713883
-0.000606498
-0.000482372
-0.000341121
-0.00018254
-6.63859e-06
0.000186341
0.000395896
0.000621248
0.000861324
0.00111475
0.00137985
0.00165464
0.00193684
0.00222391
0.00251305
0.00280125
0.0030853
0.0033619
0.00362764
0.00387913
0.00411302
0.00432607
0.00451524
0.00467776
0.00481117
0.00491339
0.0049828
0.00501824
0.00501908
0.00498522
0.0049171
0.00481568
0.00468247
0.00451941
0.0043289
0.00411367
0.00387679
0.00362154
0.00335133
0.00306967
0.00278006
0.00248595
0.00219064
0.00189718
0.00160836
0.0013281
0.00106004
0.000788413
0.000496572
0.00262417
0.00209539
0.00167561
0.0013276
0.0010113
0.000726251
0.000472112
0.000245768
4.41997e-05
-0.00013525
-0.000295047
-0.000437458
-0.000564518
-0.000678016
-0.000779488
-0.000870217
-0.000951229
-0.0010233
-0.00108696
-0.0011425
-0.00119
-0.00122932
-0.00126014
-0.00128197
-0.00129418
-0.00129599
-0.00128655
-0.00126493
-0.00123017
-0.00118128
-0.00111732
-0.00103739
-0.00094066
-0.000826453
-0.000694228
-0.000543631
-0.000374525
-0.000187017
1.85142e-05
0.000241401
0.000480664
0.000735003
0.00100279
0.00128206
0.00157055
0.00186566
0.00216454
0.00246405
0.00276089
0.00305155
0.00333246
0.00359996
0.00385046
0.00408044
0.00428657
0.00446573
0.00461516
0.00473247
0.0048157
0.00486341
0.00487467
0.00484914
0.00478705
0.00468917
0.00455688
0.00439203
0.00419697
0.00397445
0.0037276
0.00345977
0.00317453
0.00287556
0.00256657
0.00225122
0.00193308
0.00161544
0.00130135
0.000995154
0.000700907
0.000401067
7.72288e-05
0.00260882
0.00204961
0.00160661
0.00124029
0.000908074
0.000609275
0.000343353
0.000106813
-0.000103723
-0.000291236
-0.000458487
-0.000608005
-0.000742051
-0.00086261
-0.000971379
-0.00106977
-0.00115891
-0.00123965
-0.00131255
-0.00137795
-0.0014359
-0.00148626
-0.00152866
-0.00156254
-0.00158719
-0.00160176
-0.00160528
-0.0015967
-0.00157493
-0.00153884
-0.00148733
-0.00141934
-0.00133391
-0.00123016
-0.00110741
-0.000965125
-0.000803024
-0.000621061
-0.000419475
-0.00019881
4.00613e-05
0.000295925
0.000567212
0.000852001
0.00114802
0.00145264
0.00176295
0.00207572
0.00238749
0.0026946
0.00299323
0.00327949
0.00354951
0.00379945
0.00402563
0.00422461
0.00439324
0.00452877
0.00462888
0.00469178
0.00471622
0.00470156
0.00464776
0.00455541
0.00442569
0.00426036
0.00406172
0.00383253
0.00357595
0.00329547
0.00299482
0.00267787
0.00234858
0.00201089
0.00166866
0.00132548
0.000984717
0.000651177
0.000329394
1.06937e-08
-0.000357193
0.00254571
0.00195742
0.00149219
0.00110832
0.00076078
0.000448677
0.000171254
-7.53532e-05
-0.000294876
-0.00049061
-0.000665601
-0.000822631
-0.000964179
-0.00109241
-0.00120918
-0.00131602
-0.00141414
-0.00150445
-0.00158756
-0.00166381
-0.00173326
-0.00179571
-0.00185076
-0.00189778
-0.00193597
-0.00196439
-0.00198194
-0.00198746
-0.0019797
-0.0019574
-0.00191929
-0.00186415
-0.00179082
-0.00169829
-0.00158566
-0.00145224
-0.00129757
-0.00112145
-0.000923945
-0.00070547
-0.000466771
-0.000208962
6.64681e-05
0.000357643
0.000662304
0.000977817
0.00130119
0.00162912
0.00195798
0.00228393
0.00260293
0.00291083
0.00320344
0.00347657
0.00372619
0.00394844
0.00413979
0.00429705
0.00441749
0.00449893
0.00453973
0.00453891
0.00449612
0.0044117
0.00428664
0.00412255
0.00392167
0.00368675
0.00342102
0.00312808
0.00281185
0.00247645
0.0021261
0.00176506
0.00139755
0.00102749
0.000658607
0.000296247
-5.45405e-05
-0.000414991
-0.000807211
0.00243155
0.00181557
0.00132918
0.000928549
0.000566338
0.000241422
-4.71742e-05
-0.000303679
-0.000532167
-0.000736244
-0.000919232
-0.00108416
-0.0012337
-0.00137022
-0.00149569
-0.00161176
-0.00171972
-0.00182054
-0.00191486
-0.00200301
-0.00208504
-0.00216072
-0.00222958
-0.00229093
-0.00234387
-0.00238734
-0.00242014
-0.00244096
-0.00244842
-0.00244108
-0.00241751
-0.0023763
-0.00231613
-0.00223578
-0.00213416
-0.00201039
-0.00186383
-0.00169407
-0.00150103
-0.00128495
-0.00104643
-0.000786467
-0.000506455
-0.000208201
0.000106067
0.00043371
0.000771691
0.0011166
0.00146469
0.00181192
0.00215402
0.00248655
0.00280497
0.00310476
0.00338145
0.00363076
0.00384868
0.00403157
0.00417622
0.00427998
0.0043408
0.00435726
0.00432869
0.00425509
0.00413723
0.00397654
0.00377517
0.00353585
0.00326187
0.00295697
0.00262526
0.00227113
0.00189911
0.00151383
0.00111989
0.000721611
0.000323141
-6.96056e-05
-0.000451
-0.000844245
-0.00127343
0.00226318
0.00162098
0.00111453
0.000698005
0.000321813
-1.53872e-05
-0.000314793
-0.000580992
-0.000818398
-0.00103092
-0.00122214
-0.00139532
-0.00155336
-0.00169875
-0.00183363
-0.00195973
-0.00207843
-0.00219073
-0.0022973
-0.00239845
-0.00249422
-0.00258434
-0.00266826
-0.00274522
-0.00281423
-0.0028741
-0.00292352
-0.00296101
-0.00298505
-0.00299403
-0.00298634
-0.00296039
-0.00291464
-0.00284767
-0.0027582
-0.00264513
-0.0025076
-0.00234501
-0.00215707
-0.00194385
-0.00170578
-0.0014437
-0.0011589
-0.000853085
-0.000528435
-0.000187577
0.000166418
0.00053006
0.000899466
0.00127041
0.00163838
0.00199863
0.00234627
0.00267638
0.00298405
0.0032645
0.00351323
0.00372605
0.00389923
0.0040296
0.00411458
0.00415231
0.00414166
0.0040823
0.00397468
0.00382005
0.0036204
0.00337844
0.00309749
0.00278145
0.00243463
0.00206171
0.00166759
0.00125729
0.000835838
0.000408025
-2.156e-05
-0.000446352
-0.000860098
-0.00128808
-0.00175647
0.00203761
0.00137074
0.00084541
0.000413869
2.4426e-05
-0.000324496
-0.000634322
-0.000909989
-0.00115624
-0.00137729
-0.00157697
-0.00175877
-0.00192578
-0.00208067
-0.00222567
-0.00236263
-0.00249297
-0.00261776
-0.00273765
-0.00285297
-0.00296371
-0.00306955
-0.00316989
-0.00326386
-0.00335038
-0.00342813
-0.00349567
-0.00355138
-0.00359356
-0.00362042
-0.00363017
-0.00362101
-0.00359119
-0.00353908
-0.00346316
-0.0033621
-0.00323482
-0.00308048
-0.00289859
-0.00268898
-0.0024519
-0.00218803
-0.00189849
-0.00158488
-0.0012493
-0.000894335
-0.000523074
-0.000139073
0.000253665
0.000650729
0.00104736
0.0014385
0.0018189
0.0021832
0.00252599
0.002842
0.00312614
0.00337362
0.00358014
0.00374189
0.00385573
0.00391925
0.00393083
0.00388969
0.00379593
0.00365054
0.00345533
0.00321294
0.00292674
0.00260074
0.0022395
0.00184801
0.00143153
0.000995557
0.000545598
8.69352e-05
-0.00037533
-0.000833924
-0.00128191
-0.00174678
-0.00225695
0.00175202
0.00106211
0.000519116
7.34967e-05
-0.000328434
-0.000688488
-0.00100832
-0.00129321
-0.00154824
-0.00177788
-0.00198624
-0.00217702
-0.0023535
-0.00251849
-0.00267435
-0.002823
-0.00296595
-0.00310425
-0.00323861
-0.00336931
-0.00349632
-0.00361927
-0.00373746
-0.00384995
-0.00395554
-0.00405281
-0.00414013
-0.00421577
-0.00427782
-0.00432434
-0.00435331
-0.00436272
-0.0043506
-0.00431508
-0.00425439
-0.00416696
-0.00405145
-0.00390677
-0.00373217
-0.00352725
-0.00329204
-0.003027
-0.00273307
-0.00241171
-0.00206491
-0.00169519
-0.00130561
-0.000899791
-0.000481827
-5.63078e-05
0.000371762
0.000797019
0.00121382
0.00161634
0.00199868
0.00235496
0.00267948
0.0029668
0.00321193
0.00341039
0.00355837
0.00365281
0.00369152
0.00367321
0.00359755
0.00346518
0.0032777
0.00303763
0.00274836
0.00241402
0.0020394
0.00162981
0.00119097
0.000728819
0.000249428
-0.000241374
-0.000737923
-0.00123217
-0.00171644
-0.00222057
-0.0027754
0.00140379
0.000692527
0.000133154
-0.000325571
-0.000739195
-0.00110977
-0.00143918
-0.00173304
-0.00199674
-0.00223505
-0.00245231
-0.00265245
-0.0028389
-0.00301462
-0.00318208
-0.0033433
-0.00349982
-0.00365273
-0.00380273
-0.00395009
-0.00409474
-0.00423624
-0.00437383
-0.00450646
-0.00463282
-0.00475135
-0.0048603
-0.00495774
-0.00504161
-0.00510976
-0.00515995
-0.00518996
-0.00519758
-0.00518066
-0.00513719
-0.00506532
-0.00496341
-0.00483012
-0.00466441
-0.00446561
-0.00423348
-0.00396824
-0.00367062
-0.00334189
-0.00298388
-0.00259903
-0.00219034
-0.00176144
-0.00131653
-0.00086033
-0.000398093
6.45049e-05
0.000521425
0.000966365
0.00139287
0.00179443
0.00216468
0.00249745
0.00278697
0.00302802
0.00321601
0.00334717
0.0034186
0.0034284
0.00337574
0.00326083
0.00308499
0.00285058
0.00256095
0.00222035
0.00183379
0.00140694
0.000945957
0.00045732
-5.23149e-05
-0.000576508
-0.00110897
-0.00164082
-0.00216354
-0.00270954
-0.00331221
0.000990471
0.000259648
-0.000314774
-0.000785594
-0.00121009
-0.00159055
-0.00192909
-0.00223166
-0.00250395
-0.002751
-0.00297739
-0.00318724
-0.00338416
-0.00357126
-0.00375111
-0.00392578
-0.00409687
-0.00426551
-0.00443238
-0.00459774
-0.00476146
-0.00492305
-0.00508166
-0.00523615
-0.00538509
-0.00552679
-0.00565935
-0.00578066
-0.00588848
-0.00598044
-0.0060541
-0.00610699
-0.00613663
-0.00614062
-0.00611666
-0.00606259
-0.00597649
-0.00585668
-0.00570182
-0.00551093
-0.00528347
-0.00501939
-0.00471915
-0.00438378
-0.00401494
-0.0036149
-0.00318661
-0.00273365
-0.00226027
-0.00177134
-0.00127233
-0.000769206
-0.000268423
0.000223226
0.000698698
0.00115083
0.0015725
0.00195675
0.00229697
0.00258706
0.00282158
0.0029959
0.00310634
0.00315029
0.00312627
0.003034
0.00287441
0.00264965
0.00236298
0.00201873
0.00162214
0.00117923
0.000696631
0.000181407
-0.000359148
-0.000917927
-0.00148796
-0.00205942
-0.00262293
-0.00321361
-0.00386764
0.000509858
-0.000238668
-0.000826751
-0.00130862
-0.00174315
-0.00213284
-0.00248006
-0.00279107
-0.00307185
-0.0033277
-0.00356344
-0.00378339
-0.00399131
-0.00419044
-0.00438345
-0.00457249
-0.00475919
-0.00494471
-0.00512971
-0.00531445
-0.00549874
-0.00568202
-0.00586338
-0.00604155
-0.00621501
-0.00638191
-0.00654019
-0.0066876
-0.00682168
-0.00693986
-0.00703945
-0.00711774
-0.00717199
-0.00719949
-0.00719763
-0.00716395
-0.00709618
-0.00699231
-0.00685065
-0.00666987
-0.00644909
-0.00618793
-0.00588654
-0.00554569
-0.00516678
-0.0047519
-0.00430386
-0.00382617
-0.00332311
-0.00279963
-0.0022614
-0.00171468
-0.00116632
-0.000623618
-9.42304e-05
0.000413979
0.000893083
0.00133526
0.00173296
0.00207913
0.00236734
0.002592
0.00274851
0.00283341
0.00284447
0.00278079
0.00264285
0.00243245
0.00215273
0.00180805
0.00140385
0.000946529
0.000443202
-9.84509e-05
-0.000670434
-0.00126491
-0.00187415
-0.00248732
-0.00309407
-0.00373247
-0.00444166
-4.00297e-05
-0.000804324
-0.00140463
-0.00189648
-0.00234016
-0.00273842
-0.00309385
-0.00341302
-0.0037022
-0.00396693
-0.00421225
-0.00444267
-0.00466211
-0.00487393
-0.0050809
-0.00528523
-0.0054886
-0.00569217
-0.00589662
-0.00610215
-0.00630856
-0.0065152
-0.00672109
-0.00692487
-0.00712486
-0.00731912
-0.00750541
-0.00768129
-0.00784413
-0.00799111
-0.00811933
-0.00822579
-0.00830747
-0.00836136
-0.00838453
-0.00837416
-0.00832762
-0.00824253
-0.00811681
-0.00794875
-0.00773708
-0.00748105
-0.00718045
-0.00683571
-0.00644794
-0.00601899
-0.00555147
-0.00504879
-0.00451516
-0.00395562
-0.00337597
-0.00278275
-0.00218321
-0.00158513
-0.000996811
-0.000426847
0.000115978
0.000622899
0.00108536
0.0014952
0.00184492
0.00212782
0.00233825
0.00247174
0.00252519
0.00249693
0.00238685
0.00219633
0.00192831
0.0015871
0.00117833
0.000708742
0.000185974
-0.000381639
-0.000985347
-0.00161651
-0.00226658
-0.0029236
-0.00357615
-0.00426551
-0.00503401
-0.000660916
-0.00143897
-0.00205003
-0.00255075
-0.00300269
-0.00340884
-0.00377201
-0.00409906
-0.00439652
-0.0046702
-0.00492533
-0.0051666
-0.00539808
-0.00562326
-0.00584498
-0.00606554
-0.00628664
-0.00650946
-0.00673467
-0.00696246
-0.00719256
-0.00742429
-0.00765655
-0.00788791
-0.00811657
-0.00834044
-0.00855713
-0.00876402
-0.00895826
-0.00913683
-0.00929657
-0.0094342
-0.00954641
-0.00962986
-0.00968127
-0.00969746
-0.0096754
-0.00961231
-0.00950569
-0.00935339
-0.00915372
-0.00890548
-0.00860808
-0.00826154
-0.00786662
-0.00742485
-0.0069386
-0.00641109
-0.00584644
-0.00524969
-0.00462675
-0.00398441
-0.00333025
-0.00267258
-0.0020203
-0.00138281
-0.00076976
-0.000190946
0.000343965
0.000825644
0.00124534
0.00159513
0.00186813
0.00205873
0.00216277
0.00217769
0.00210261
0.0019384
0.00168765
0.00135458
0.000944943
0.000465818
-7.46267e-05
-0.000667367
-0.00130284
-0.00197153
-0.00266398
-0.00336702
-0.00406807
-0.00481182
-0.00564406
-0.00135425
-0.00214401
-0.00276429
-0.00327275
-0.00373205
-0.0041454
-0.00451582
-0.00485046
-0.00515611
-0.00543879
-0.00570394
-0.00595643
-0.00620048
-0.00643966
-0.00667693
-0.00691463
-0.00715452
-0.00739778
-0.00764508
-0.00789659
-0.00815199
-0.00841055
-0.00867109
-0.00893207
-0.00919159
-0.00944741
-0.00969699
-0.00993752
-0.010166
-0.0103791
-0.0105734
-0.0107454
-0.0108915
-0.0110079
-0.0110911
-0.0111374
-0.0111434
-0.0111059
-0.011022
-0.0108889
-0.0107046
-0.0104673
-0.010176
-0.00983027
-0.00943043
-0.00897763
-0.00847392
-0.00792227
-0.00732664
-0.006692
-0.00602432
-0.00533056
-0.00461864
-0.00389733
-0.00317618
-0.00246536
-0.00177546
-0.00111736
-0.000501907
6.02593e-05
0.000559028
0.000985075
0.00133014
0.00158727
0.00175108
0.00181791
0.00178598
0.00165546
0.00142847
0.00110907
0.000703039
0.000217771
-0.000338037
-0.000954638
-0.0016216
-0.00232845
-0.00306476
-0.00381599
-0.0045683
-0.00537007
-0.00627079
-0.0021212
-0.00292055
-0.0035485
-0.00406355
-0.00452929
-0.00494912
-0.00532631
-0.00566823
-0.00598195
-0.00627368
-0.00654907
-0.00681313
-0.00707023
-0.00732405
-0.00757764
-0.00783339
-0.0080931
-0.00835797
-0.00862868
-0.00890536
-0.00918767
-0.00947481
-0.00976553
-0.0100582
-0.0103508
-0.010641
-0.010926
-0.0112029
-0.0114685
-0.0117192
-0.0119514
-0.0121611
-0.0123446
-0.0124977
-0.0126164
-0.0126967
-0.0127348
-0.0127269
-0.0126695
-0.0125596
-0.0123944
-0.0121717
-0.01189
-0.0115482
-0.0111462
-0.0106847
-0.0101654
-0.00959091
-0.0089649
-0.00829222
-0.00757883
-0.00683182
-0.00605937
-0.00527069
-0.00447595
-0.00368609
-0.00291268
-0.00216772
-0.00146335
-0.000811597
-0.000224086
0.000288303
0.000715738
0.00104974
0.00128349
0.00141201
0.00143242
0.00134402
0.00114833
0.000849049
0.000451961
-3.53047e-05
-0.000603529
-0.00124222
-0.00194001
-0.00268543
-0.00346691
-0.00426848
-0.00507489