/*--------------------------------*- C++ -*----------------------------------*\
| =========                 |                                                 |
| \\      /  F ield         | OpenFOAM: The Open Source CFD Toolbox           |
|  \\    /   O peration     | Version:  2.1.1                                 |
|   \\  /    A nd           | Web:      www.OpenFOAM.org                      |
|    \\/     M anipulation  |                                                 |
\*---------------------------------------------------------------------------*/
FoamFile
{
    version     2.0;
    format      ascii;
    class       volScalarField;
    location    "0.5";
    object      p;
}
// * * * * * * * * * * * * * * * * * * * * * * * * * * * * * * * * * * * * * //

dimensions      [0 2 -2 0 0 0 0];

internalField   nonuniform List<scalar> 
1681
(
-2.14252e-11
-0.000132955
-0.00042774
-0.000812141
-0.00121666
-0.00159643
-0.00192154
-0.0021734
-0.00234124
-0.00241916
-0.00240409
-0.00229451
-0.00208977
-0.00178996
-0.00139604
-0.000910306
-0.000336882
0.000317669
0.00104383
0.00182873
0.00265595
0.00350561
0.00435469
0.0051778
0.00594816
0.00663896
0.00722489
0.00768387
0.00799864
0.00815838
0.00815993
0.00800861
0.00771867
0.00731314
0.00682341
0.00628821
0.00575267
0.00526717
0.00488464
0.00466204
0.00462766
0.000132169
-2.83742e-06
-0.000241061
-0.000538498
-0.000851806
-0.00114777
-0.00140274
-0.00160073
-0.00173136
-0.00178814
-0.00176707
-0.00166577
-0.00148293
-0.00121815
-0.000872075
-0.000446662
5.44005e-05
0.00062525
0.00125745
0.00193968
0.0026576
0.003394
0.00412899
0.00484078
0.00550649
0.00610333
0.00660997
0.00700792
0.00728304
0.00742677
0.00743723
0.0073198
0.00708743
0.00676035
0.00636547
0.00593535
0.0055068
0.0051178
0.00480943
0.00462394
0.00459258
0.00043235
0.000231225
-1.22256e-05
-0.000280637
-0.000552754
-0.000805009
-0.00101987
-0.00118529
-0.001293
-0.00133742
-0.00131481
-0.00122267
-0.00105936
-0.000824062
-0.000516866
-0.000139093
0.000306355
0.000814592
0.00137837
0.0019878
0.00263021
0.00329027
0.00395015
0.00459019
0.00518971
0.00572806
0.00618584
0.0065463
0.00679664
0.00692922
0.0069425
0.00684162
0.00663849
0.00635146
0.0060045
0.00562607
0.00524758
0.00490117
0.0046188
0.0044345
0.00437505
0.00083402
0.000528308
0.00024191
-3.28208e-05
-0.000295316
-0.000529932
-0.000724938
-0.000872844
-0.000968389
-0.00100779
-0.000988241
-0.000907566
-0.000764015
-0.000556325
-0.000283915
5.27798e-05
0.000451907
0.000909773
0.00142044
0.00197541
0.00256344
0.00317063
0.00378046
0.00437455
0.00493325
0.00543676
0.00586633
0.00620557
0.00644186
0.00656749
0.00658059
0.00648572
0.00629386
0.00602202
0.00569225
0.00533039
0.0049644
0.00462275
0.00433297
0.00411961
0.00399903
0.00126862
0.000842837
0.000496173
0.000197827
-7.1331e-05
-0.000302607
-0.000489728
-0.00062986
-0.000721015
-0.000761504
-0.000749725
-0.000683984
-0.000562482
-0.000383473
-0.00014557
0.000151852
0.000508187
0.000921111
0.00138612
0.00189613
0.00244127
0.00300878
0.00358318
0.00414676
0.00468032
0.00516412
0.00557921
0.00590876
0.00613947
0.00626287
0.00627622
0.00618315
0.00599366
0.00572362
0.00539371
0.00502795
0.00465203
0.00429208
0.003973
0.00370933
0.00350579
0.00168508
0.00113417
0.000718368
0.00038556
9.84206e-05
-0.000140382
-0.000329532
-0.000470633
-0.000564923
-0.000612835
-0.00061401
-0.000567265
-0.000470717
-0.000322062
-0.000118977
0.000140378
0.000456808
0.000829505
0.0012555
0.00172918
0.00224195
0.00278206
0.00333475
0.00388262
0.00440629
0.00488551
0.00530038
0.00563283
0.00586814
0.00599632
0.00601318
0.00592101
0.00572864
0.00545091
0.00510754
0.00472151
0.00431729
0.00392009
0.0035538
0.00322419
0.00292438
0.00204111
0.00136619
0.000877737
0.000504117
0.000191375
-6.30691e-05
-0.000262345
-0.000412139
-0.000516694
-0.000578424
-0.000598109
-0.000574989
-0.000506994
-0.000391138
-0.000224023
-2.43346e-06
0.000276005
0.00061215
0.00100468
0.00144952
0.00193937
0.00246339
0.00300735
0.00355381
0.00408285
0.0045731
0.00500305
0.00535267
0.00560501
0.0057478
0.0057747
0.00568609
0.00548933
0.00519819
0.00483176
0.00441265
0.00396513
0.00351487
0.00308638
0.00267829
0.00227363
0.00230072
0.00150644
0.000945472
0.000528212
0.000185367
-9.03349e-05
-0.000306029
-0.000471106
-0.000592503
-0.000674381
-0.00071846
-0.000724227
-0.000689268
-0.000609754
-0.000481045
-0.000298381
-5.76368e-05
0.000243886
0.000606682
0.00102833
0.00150292
0.00202057
0.00256749
0.00312604
0.00367543
0.00419273
0.00465425
0.00503723
0.0053217
0.00549222
0.00553946
0.00546121
0.00526282
0.00495681
0.00456176
0.0041005
0.00359803
0.00308178
0.00257847
0.00208117
0.00156438
0.00243239
0.00152535
0.000894298
0.000432909
5.7617e-05
-0.000243174
-0.000480256
-0.00066636
-0.000810795
-0.000919184
-0.000993944
-0.0010346
-0.00103818
-0.000999845
-0.000913511
-0.000772677
-0.000571263
-0.000304505
3.01341e-05
0.00043212
0.00089711
0.00141637
0.00197661
0.00255997
0.00314463
0.00370575
0.00421691
0.00465192
0.00498686
0.00520216
0.00528446
0.00522801
0.00503542
0.00471751
0.00429236
0.00378338
0.00321719
0.00262419
0.00203482
0.00143799
0.000800671
0.00240775
0.00139577
0.000698523
0.000194006
-0.000214695
-0.000543251
-0.00080584
-0.00101821
-0.00119172
-0.00133319
-0.00144548
-0.0015279
-0.00157675
-0.00158594
-0.00154775
-0.00145372
-0.00129557
-0.00106618
-0.000760665
-0.000377343
8.13609e-05
0.000608158
0.00119052
0.00181052
0.00244528
0.00306784
0.0036486
0.0041572
0.00456481
0.00484654
0.00498376
0.00496593
0.00479187
0.00447
0.0040176
0.0034589
0.00282284
0.00214401
0.00145804
0.0007507
-1.79854e-05
0.00220085
0.00109276
0.000334193
-0.00021151
-0.000653727
-0.00101204
-0.00130378
-0.00154742
-0.00175614
-0.00193765
-0.00209503
-0.00222717
-0.00232943
-0.00239426
-0.00241212
-0.00237232
-0.00226407
-0.0020776
-0.00180526
-0.00144269
-0.000989912
-0.000452272
0.000158919
0.000826033
0.00152532
0.00222765
0.00289987
0.00350677
0.00401356
0.0043887
0.0046067
0.00465067
0.00451418
0.00420211
0.00373033
0.00312386
0.00241457
0.00164234
0.000849523
1.94202e-05
-0.000894781
0.00178801
0.000593588
-0.000220705
-0.000805067
-0.00128043
-0.00167012
-0.00199448
-0.00227446
-0.00252477
-0.00275384
-0.00296475
-0.00315581
-0.00332121
-0.00345183
-0.00353603
-0.00356067
-0.00351216
-0.00337762
-0.00314617
-0.00281019
-0.00236664
-0.00181823
-0.00117436
-0.000451748
0.00032543
0.00112605
0.00191322
0.00264628
0.00328339
0.00378483
0.00411641
0.00425284
0.00418048
0.00389902
0.00342184
0.00277436
0.00199172
0.00112022
0.000210474
-0.000756247
-0.00183391
0.00114794
-0.000122124
-0.000985963
-0.00160609
-0.00211398
-0.00253658
-0.00289704
-0.00321858
-0.00351728
-0.0038021
-0.00407596
-0.00433644
-0.00457649
-0.00478518
-0.00494865
-0.00505105
-0.00507561
-0.00500596
-0.00482737
-0.00452827
-0.00410175
-0.00354695
-0.0028704
-0.00208702
-0.00122066
-0.000303927
0.000622639
0.00151245
0.00231563
0.00298262
0.00346835
0.00373661
0.00376393
0.00354252
0.00308149
0.00240578
0.00155383
0.00057938
-0.000457032
-0.00157591
-0.00283898
0.000262036
-0.00107206
-0.00197878
-0.00263157
-0.00317126
-0.00362828
-0.00402844
-0.00439704
-0.00475135
-0.00510074
-0.00544792
-0.00578965
-0.00611754
-0.0064188
-0.00667717
-0.00687384
-0.00698861
-0.00700107
-0.00689205
-0.00664524
-0.00624884
-0.00569733
-0.00499313
-0.00414814
-0.0031847
-0.00213606
-0.00104591
3.31231e-05
0.00104224
0.00192039
0.00260919
0.00305847
0.0032316
0.00311009
0.0026962
0.00201275
0.00110099
2.30119e-05
-0.00114896
-0.00243705
-0.00391154
-0.000885165
-0.00227081
-0.00321336
-0.00389554
-0.00446627
-0.00495924
-0.00540276
-0.00582407
-0.00624151
-0.00666482
-0.00709645
-0.00753238
-0.00796283
-0.00837315
-0.00874458
-0.00905523
-0.00928108
-0.00939728
-0.00937958
-0.00920602
-0.00885885
-0.00832655
-0.00760599
-0.0067044
-0.00564108
-0.00444851
-0.00317257
-0.00187156
-0.000613687
0.000526991
0.00147623
0.00216634
0.00254346
0.00257412
0.00224999
0.00158908
0.000634304
-0.000543388
-0.00185818
-0.00333364
-0.00504951
-0.00230547
-0.0037295
-0.00470051
-0.00540868
-0.00600959
-0.00653993
-0.0070304
-0.00750999
-0.0079981
-0.00850483
-0.00903245
-0.00957618
-0.010125
-0.0106624
-0.0111672
-0.0116143
-0.0119755
-0.0122213
-0.0123216
-0.012248
-0.0119756
-0.0114854
-0.0107671
-0.00982126
-0.00866215
-0.00731955
-0.00583988
-0.00428609
-0.00273569
-0.00127682
-2.0913e-06
0.000999515
0.00165192
0.00190129
0.00172354
0.00112777
0.000156294
-0.0011111
-0.00257311
-0.00425459
-0.0062455
-0.00400658
-0.00545538
-0.00644727
-0.00717792
-0.0078079
-0.00837673
-0.0089173
-0.00946029
-0.0100261
-0.0106254
-0.0112603
-0.0119255
-0.0126089
-0.0132922
-0.013952
-0.0145598
-0.0150835
-0.0154882
-0.0157377
-0.0157961
-0.0156303
-0.0152125
-0.014523
-0.0135539
-0.0123118
-0.0108212
-0.00912686
-0.00729438
-0.00540963
-0.00357519
-0.00190401
-0.000510279
0.000502218
0.00105259
0.00109415
0.000621205
-0.000328437
-0.00166709
-0.00327629
-0.00518196
-0.00748487
-0.00599168
-0.00745157
-0.00845673
-0.00920612
-0.00986369
-0.0104714
-0.0110644
-0.0116748
-0.0123242
-0.0130239
-0.0137763
-0.0145756
-0.0154091
-0.016257
-0.0170936
-0.0178873
-0.018602
-0.0191973
-0.0196303
-0.0198572
-0.0198356
-0.0195273
-0.0189016
-0.0179393
-0.0166371
-0.015011
-0.0131008
-0.010972
-0.00871683
-0.00645138
-0.00431012
-0.00243582
-0.000965816
-1.57948e-05
0.000336246
6.1662e-05
-0.000812323
-0.00219262
-0.00394249
-0.00608877
-0.00874337
-0.00825919
-0.00971695
-0.0107279
-0.011492
-0.012175
-0.012821
-0.0134669
-0.0141469
-0.0148838
-0.0156897
-0.0165674
-0.0175115
-0.0185086
-0.0195379
-0.0205718
-0.0215759
-0.0225099
-0.0233281
-0.0239807
-0.0244155
-0.0245797
-0.0244237
-0.0239038
-0.0229879
-0.021659
-0.0199216
-0.0178068
-0.0153761
-0.0127244
-0.00997924
-0.00729619
-0.00484897
-0.00281391
-0.00134999
-0.000577016
-0.000557411
-0.00128346
-0.00266146
-0.00453651
-0.00693649
-0.00998434
-0.0108027
-0.0122463
-0.0132559
-0.0140305
-0.0147355
-0.0154172
-0.0161146
-0.0168634
-0.0176883
-0.0186026
-0.0196101
-0.020706
-0.0218768
-0.0231011
-0.0243497
-0.0255858
-0.0267653
-0.0278373
-0.0287449
-0.0294272
-0.0298209
-0.0298635
-0.0294976
-0.0286749
-0.0273629
-0.0255509
-0.0232568
-0.0205333
-0.0174734
-0.0142118
-0.0109231
-0.00781222
-0.00509896
-0.00299394
-0.00167072
-0.00123916
-0.00172351
-0.00303758
-0.00501037
-0.00767175
-0.0111552
-0.0136114
-0.0150304
-0.0160324
-0.0168126
-0.0175349
-0.0182473
-0.018991
-0.019804
-0.0207128
-0.021733
-0.0228698
-0.0241193
-0.0254688
-0.0268965
-0.0283725
-0.0298576
-0.0313043
-0.0326568
-0.0338515
-0.0348187
-0.0354842
-0.0357725
-0.0356107
-0.0349337
-0.0336905
-0.0318517
-0.0294176
-0.0264272
-0.0229652
-0.0191679
-0.0152238
-0.0113674
-0.00786363
-0.00498225
-0.00296308
-0.0019796
-0.00210465
-0.00327194
-0.00529978
-0.00822245
-0.0121833
-0.0166701
-0.0180575
-0.0190464
-0.0198268
-0.0205595
-0.0212941
-0.0220745
-0.0229414
-0.0239244
-0.0250415
-0.0263003
-0.0276987
-0.029225
-0.0308581
-0.0325671
-0.0343114
-0.0360405
-0.0376939
-0.0392017
-0.0404856
-0.0414607
-0.0420385
-0.0421301
-0.0416518
-0.0405341
-0.0387247
-0.0362027
-0.0329875
-0.0291492
-0.024818
-0.0201892
-0.0155216
-0.0111241
-0.00733021
-0.00445784
-0.00276208
-0.00238511
-0.00329843
-0.00531977
-0.00849298
-0.0129707
-0.0199608
-0.0213135
-0.0222856
-0.0230597
-0.023793
-0.0245368
-0.0253383
-0.0262421
-0.0272817
-0.0284789
-0.0298446
-0.031379
-0.0330723
-0.0349042
-0.0368438
-0.0388492
-0.0408672
-0.0428333
-0.0446715
-0.0462955
-0.0476102
-0.048514
-0.0489022
-0.0486711
-0.0477367
-0.0460167
-0.0434669
-0.0400824
-0.0359121
-0.0310715
-0.0257535
-0.0202323
-0.0148556
-0.0100211
-0.00613413
-0.00354947
-0.00250311
-0.00302847
-0.00495929
-0.00835845
-0.0133882
-0.0234636
-0.0247842
-0.0257377
-0.0264981
-0.0272183
-0.0279523
-0.0287516
-0.0296667
-0.0307363
-0.0319875
-0.0334355
-0.0350838
-0.036925
-0.0389402
-0.0410986
-0.0433575
-0.0456613
-0.0479417
-0.0501172
-0.0520939
-0.0537671
-0.0550229
-0.0557427
-0.0558088
-0.0550995
-0.0535243
-0.0510084
-0.0475179
-0.0430739
-0.0377689
-0.0317828
-0.0253934
-0.0189773
-0.0129918
-0.00793378
-0.00427403
-0.00236894
-0.00234423
-0.00407453
-0.00765773
-0.0132679
-0.0271584
-0.0284574
-0.0293931
-0.0301303
-0.0308187
-0.031516
-0.0322806
-0.0331707
-0.034233
-0.0355015
-0.0369968
-0.0387271
-0.0406876
-0.042861
-0.0452172
-0.0477123
-0.0502887
-0.0528743
-0.0553824
-0.0577123
-0.05975
-0.0613703
-0.0624402
-0.0628237
-0.0623851
-0.0610034
-0.0585776
-0.0550437
-0.0503906
-0.0446804
-0.0380691
-0.0308249
-0.0233391
-0.0161178
-0.00974722
-0.00482525
-0.00185494
-0.00109022
-0.00248091
-0.00618521
-0.0123951
-0.0310281
-0.0323259
-0.0332476
-0.0339494
-0.0345801
-0.0352037
-0.035889
-0.0367056
-0.0377111
-0.0389484
-0.0404455
-0.0422157
-0.0442576
-0.0465556
-0.0490795
-0.0517847
-0.054611
-0.0574825
-0.0603076
-0.0629786
-0.0653732
-0.0673558
-0.0687802
-0.0694943
-0.0693449
-0.0681871
-0.0658932
-0.0623681
-0.0575664
-0.0515139
-0.0443334
-0.0362702
-0.0277134
-0.0192014
-0.0113995
-0.00503634
-0.000783824
0.000936959
5.66092e-05
-0.00368092
-0.0104986
-0.0350612
-0.0363917
-0.0373067
-0.0379559
-0.0384929
-0.0389927
-0.0395395
-0.0402194
-0.0411048
-0.0422505
-0.0436933
-0.0454523
-0.0475296
-0.0499108
-0.0525657
-0.0554476
-0.0584935
-0.0616233
-0.0647398
-0.0677288
-0.0704598
-0.0727872
-0.0745532
-0.075591
-0.0757303
-0.0748055
-0.0726635
-0.0691795
-0.0642731
-0.0579316
-0.0502378
-0.0414021
-0.0317941
-0.0219642
-0.0126389
-0.00467091
0.00108436
0.00400048
0.00383511
0.000181367
-0.00723846
-0.0392574
-0.0406723
-0.0415906
-0.042162
-0.042555
-0.0428631
-0.043194
-0.0436571
-0.0443445
-0.0453261
-0.0466489
-0.0483382
-0.0503989
-0.0528173
-0.0555617
-0.0585825
-0.0618126
-0.0651669
-0.0685422
-0.0718172
-0.0748531
-0.0774948
-0.0795732
-0.0809086
-0.0813151
-0.0806071
-0.07861
-0.0751709
-0.0701766
-0.0635756
-0.0554074
-0.0458392
-0.0352063
-0.0240491
-0.013131
-0.00341208
0.00406532
0.00843679
0.00922764
0.00580898
-0.0021924
-0.043635
-0.0452089
-0.0461419
-0.0465964
-0.0467737
-0.0467985
-0.0468136
-0.0469606
-0.0473571
-0.048091
-0.0492205
-0.0507765
-0.052766
-0.0551738
-0.0579651
-0.0610857
-0.064463
-0.0680055
-0.0716028
-0.0751257
-0.0784269
-0.0813415
-0.0836897
-0.085279
-0.0859091
-0.0853777
-0.083489
-0.0800657
-0.0749641
-0.0680966
-0.0594598
-0.0491735
-0.0375273
-0.0250322
-0.0124614
-0.00085682
0.0085621
0.0146703
0.0167001
0.0137094
0.00516353
-0.0482432
-0.0500804
-0.0510364
-0.0513105
-0.0511685
-0.0507867
-0.0503583
-0.0500684
-0.0500662
-0.0504597
-0.051318
-0.0526763
-0.0545407
-0.0568923
-0.0596906
-0.0628744
-0.0663634
-0.0700585
-0.0738398
-0.07757
-0.081092
-0.084231
-0.0867957
-0.0885816
-0.0893742
-0.0889551
-0.0871099
-0.0836385
-0.0783705
-0.0711849
-0.0620385
-0.0510034
-0.038318
-0.0244482
-0.0101513
0.00348068
0.0150722
0.0232286
0.0268324
0.0245167
0.0154819
-0.0531832
-0.0554252
-0.0563985
-0.0563867
-0.055774
-0.0548186
-0.0537853
-0.0529146
-0.0523925
-0.0523472
-0.0528564
-0.0539557
-0.0556467
-0.0579029
-0.0606748
-0.0638908
-0.0674603
-0.0712768
-0.0752059
-0.0791027
-0.0827992
-0.0861096
-0.088831
-0.0907459
-0.0916259
-0.0912366
-0.0893455
-0.0857316
-0.0801991
-0.0725976
-0.0628467
-0.0509739
-0.0371642
-0.0218287
-0.00568695
0.0101517
0.024186
0.0347556
0.0403444
0.0390287
0.0295874
-0.0586459
-0.0614758
-0.0624239
-0.0619485
-0.0606413
-0.0588873
-0.057047
-0.0554278
-0.054254
-0.0536705
-0.0537579
-0.0545459
-0.0560254
-0.0581571
-0.0608795
-0.0641054
-0.0677332
-0.0716412
-0.0756875
-0.0797128
-0.0835382
-0.0869658
-0.0897804
-0.0917512
-0.0926348
-0.0921805
-0.0901372
-0.0862628
-0.0803374
-0.0721815
-0.06168
-0.0488173
-0.0337257
-0.0167551
0.00143056
0.0197361
0.0365697
0.0500196
0.0581293
0.0582642
0.0485514
-0.0649823
-0.0686171
-0.0694132
-0.068172
-0.0658385
-0.0629833
-0.0600865
-0.0575284
-0.0555658
-0.0543506
-0.0539552
-0.0543939
-0.055639
-0.0576321
-0.0602917
-0.0635163
-0.0671872
-0.0711678
-0.0753039
-0.0794229
-0.0833334
-0.0868251
-0.0896696
-0.0916217
-0.0924225
-0.0918041
-0.0894954
-0.0852318
-0.0787677
-0.0698929
-0.0584565
-0.044398
-0.0277943
-0.00892671
0.011613
0.0327764
0.0529218
0.0699072
0.0812919
0.0835477
0.0738287
-0.0728393
-0.0774836
-0.0778169
-0.0752969
-0.0714454
-0.0670853
-0.0628299
-0.0591234
-0.0562375
-0.0543111
-0.0533915
-0.0534634
-0.05447
-0.0563262
-0.0589267
-0.0621493
-0.0658569
-0.0698972
-0.0741014
-0.0782835
-0.0822392
-0.0857451
-0.0885592
-0.090422
-0.0910583
-0.0901818
-0.0875
-0.0827237
-0.0755778
-0.0658173
-0.0532486
-0.0377591
-0.0193596
0.0017506
0.0250808
0.0496704
0.0738846
0.0953831
0.111185
0.116642
0.107519
-0.0834341
-0.0891184
-0.0882882
-0.0836229
-0.077531
-0.071136
-0.0651653
-0.0600914
-0.0561623
-0.0534711
-0.0520145
-0.0517294
-0.0525175
-0.0542586
-0.0568183
-0.0600505
-0.0637982
-0.0678921
-0.0721486
-0.0763684
-0.0803345
-0.0838109
-0.0865426
-0.0882556
-0.0886589
-0.0874474
-0.0843062
-0.078919
-0.0709772
-0.0601936
-0.0463215
-0.0291801
-0.00869232
0.0150568
0.0417181
0.0704917
0.0998594
0.127357
0.149402
0.159953
0.152882
-0.0991323
-0.105224
-0.101698
-0.0934431
-0.0840744
-0.0749703
-0.0668847
-0.0602365
-0.0551818
-0.0517175
-0.0497547
-0.0491606
-0.0497811
-0.0514531
-0.0540087
-0.0572761
-0.0610778
-0.0652278
-0.0695289
-0.0737692
-0.0777204
-0.0811355
-0.0837477
-0.0852703
-0.0853974
-0.0838065
-0.0801601
-0.0741141
-0.0653225
-0.0534482
-0.0381779
-0.0192406
0.00356317
0.0303139
0.0608828
0.0947473
0.130673
0.166353
0.197619
0.216757
0.215168
-0.124605
-0.128515
-0.119036
-0.104844
-0.0907697
-0.0781514
-0.067556
-0.0591934
-0.0530172
-0.0488551
-0.0464891
-0.0456914
-0.0462394
-0.0479212
-0.0505338
-0.0538804
-0.0577648
-0.0619867
-0.0663373
-0.0705953
-0.0745234
-0.0778662
-0.0803482
-0.0816726
-0.081522
-0.0795598
-0.0754227
-0.0687465
-0.0591448
-0.0462253
-0.0295956
-0.00887078
0.0163138
0.046275
0.0812193
0.121089
0.165261
0.212005
0.257149
0.291156
0.302395
-0.169083
-0.163011
-0.141168
-0.117464
-0.0968087
-0.0798039
-0.0664231
-0.0563849
-0.0492646
-0.0446247
-0.0420692
-0.0412541
-0.0418818
-0.0436923
-0.0464519
-0.0499436
-0.0539578
-0.0582848
-0.0627089
-0.0670032
-0.0709257
-0.0742165
-0.076595
-0.0777589
-0.0773848
-0.0751318
-0.0705952
-0.0634131
-0.053159
-0.0393856
-0.0216171
0.000661968
0.0280194
0.0610884
0.100562
0.147121
0.201268
0.262728
0.328106
0.387541
0.426926
-0.253504
-0.21289
-0.167018
-0.129244
-0.100039
-0.078111
-0.0621626
-0.0509361
-0.0433865
-0.0387208
-0.0363427
-0.0357947
-0.0367174
-0.0388173
-0.0418438
-0.0455713
-0.0497862
-0.0542772
-0.0588281
-0.0632121
-0.0671875
-0.0704942
-0.0728514
-0.0739552
-0.0734765
-0.0710558
-0.066348
-0.0589059
-0.0482941
-0.034029
-0.0155633
0.0077391
0.0366518
0.072163
0.115584
0.168677
0.233787
0.313429
0.407147
0.51007
0.617375
-0.437874
-0.276038
-0.182288
-0.127925
-0.0915908
-0.0669236
-0.050619
-0.0400455
-0.0334442
-0.029742
-0.0282461
-0.0284713
-0.030058
-0.0327245
-0.0362346
-0.0403762
-0.0449478
-0.0497484
-0.0545705
-0.0591947
-0.0633857
-0.0668893
-0.0694298
-0.0707087
-0.0704027
-0.0681505
-0.0635966
-0.056311
-0.0458441
-0.0316943
-0.0132812
0.010094
0.0393246
0.0756372
0.120844
0.1778
0.251217
0.348383
0.478165
0.660848
0.939741
-0.805437
-0.338226
-0.154347
-0.090664
-0.0576429
-0.0377176
-0.0262981
-0.0199913
-0.0167697
-0.0156614
-0.0161596
-0.0179388
-0.0207601
-0.0244298
-0.0287759
-0.033633
-0.0388339
-0.0442035
-0.0495549
-0.054685
-0.0593723
-0.0633746
-0.0664266
-0.0682386
-0.0684974
-0.0668773
-0.062982
-0.056418
-0.046748
-0.0334819
-0.0160581
0.00619553
0.0341335
0.068933
0.112383
0.167536
0.240358
0.343744
0.506321
0.81008
1.40123
)
;

boundaryField
{
    movingWall
    {
        type            zeroGradient;
    }
    fixedWalls
    {
        type            zeroGradient;
    }
    frontAndBack
    {
        type            empty;
    }
}


// ************************************************************************* //
