/*--------------------------------*- C++ -*----------------------------------*\
| =========                 |                                                 |
| \\      /  F ield         | OpenFOAM: The Open Source CFD Toolbox           |
|  \\    /   O peration     | Version:  2.1.1                                 |
|   \\  /    A nd           | Web:      www.OpenFOAM.org                      |
|    \\/     M anipulation  |                                                 |
\*---------------------------------------------------------------------------*/
FoamFile
{
    version     2.0;
    format      ascii;
    class       volScalarField;
    location    "1";
    object      p;
}
// * * * * * * * * * * * * * * * * * * * * * * * * * * * * * * * * * * * * * //

dimensions      [0 2 -2 0 0 0 0];

internalField   nonuniform List<scalar> 
6561
(
2.22189e-08
-2.1205e-06
-6.41361e-05
-0.000183478
-0.000345801
-0.000538134
-0.000749105
-0.000969045
-0.00118999
-0.0014056
-0.00161082
-0.00180176
-0.00197538
-0.0021294
-0.00226211
-0.00237226
-0.00245895
-0.00252154
-0.0025596
-0.00257281
-0.00256099
-0.002524
-0.00246178
-0.0023743
-0.00226158
-0.00212366
-0.00196067
-0.00177278
-0.00156026
-0.00132349
-0.00106295
-0.000779301
-0.000473339
-0.000146064
0.000201325
0.000567411
0.000950544
0.00134883
0.00176015
0.00218212
0.00261213
0.00304734
0.00348472
0.00392103
0.00435291
0.00477684
0.00518926
0.00558654
0.00596511
0.00632142
0.00665208
0.00695388
0.00722384
0.00745928
0.00765787
0.00781771
0.00793733
0.00801576
0.00805255
0.00804785
0.00800233
0.0079173
0.00779463
0.0076368
0.00744686
0.00722841
0.00698561
0.00672309
0.00644601
0.00615997
0.00587085
0.00558526
0.00530986
0.00505179
0.00481846
0.00461744
0.00445618
0.00434128
0.00427752
0.00426648
0.00429558
2.14516e-06
-4.10807e-09
-5.48512e-05
-0.00015619
-0.000292279
-0.000453934
-0.000632457
-0.000820113
-0.00101017
-0.00119701
-0.00137605
-0.00154357
-0.00169664
-0.00183294
-0.00195068
-0.00204851
-0.0021254
-0.00218057
-0.00221346
-0.00222367
-0.00221088
-0.00217491
-0.0021156
-0.00203288
-0.00192674
-0.00179719
-0.00164435
-0.00146839
-0.00126957
-0.00104826
-0.000804942
-0.000540245
-0.000254955
4.99714e-05
0.000373389
0.000713952
0.0010701
0.00144006
0.00182184
0.00221321
0.00261177
0.00301486
0.0034197
0.00382329
0.00422253
0.00461422
0.00499506
0.00536178
0.00571107
0.00603975
0.00634472
0.00662308
0.00687214
0.0070895
0.00727309
0.00742122
0.00753261
0.00760645
0.0076424
0.00764065
0.00760191
0.00752744
0.00741903
0.00727902
0.00711026
0.00691611
0.0067004
0.00646742
0.00622187
0.00596886
0.00571378
0.00546241
0.00522071
0.00499485
0.00479105
0.0046155
0.00447395
0.00437107
0.00431011
0.00429532
0.0043246
6.43316e-05
5.47173e-05
-5.43861e-07
-9.43291e-05
-0.000216836
-0.000360772
-0.000519262
-0.000685894
-0.000854978
-0.00102164
-0.00118178
-0.00133203
-0.00146963
-0.00159238
-0.00169853
-0.00178671
-0.00185587
-0.00190518
-0.00193403
-0.00194194
-0.00192857
-0.00189365
-0.001837
-0.00175851
-0.00165812
-0.00153584
-0.00139175
-0.00122599
-0.00103882
-0.000830572
-0.000601713
-0.000352839
-8.46928e-05
0.000201817
0.000505606
0.0008254
0.00115973
0.00150692
0.0018651
0.00223218
0.00260588
0.00298375
0.00336314
0.00374128
0.00411527
0.00448209
0.00483871
0.00518203
0.00550901
0.00581668
0.00610216
0.00636277
0.00659602
0.00679971
0.00697193
0.00711114
0.0072162
0.00728637
0.0073214
0.00732152
0.00728744
0.00722038
0.00712205
0.0069947
0.006841
0.00666413
0.00646767
0.00625564
0.00603238
0.0058026
0.00557125
0.00534355
0.00512485
0.0049206
0.00473624
0.00457703
0.00444787
0.00435265
0.0042944
0.00428014
0.00431404
0.000184887
0.000156445
9.22471e-05
-2.47037e-06
-0.000120664
-0.000256257
-0.000403539
-0.000557189
-0.00071243
-0.000865095
-0.00101162
-0.00114903
-0.00127485
-0.00138707
-0.00148407
-0.00156457
-0.00162753
-0.00167216
-0.00169784
-0.00170408
-0.0016905
-0.00165682
-0.00160283
-0.00152838
-0.00143338
-0.00131782
-0.00118173
-0.00102525
-0.000848579
-0.000652024
-0.000436009
-0.000201082
5.20642e-05
0.000322582
0.000609455
0.000911487
0.0012273
0.00155531
0.00189374
0.00224065
0.00259387
0.00295108
0.00330979
0.00366736
0.00402105
0.00436803
0.00470539
0.00503023
0.00533966
0.00563086
0.00590112
0.0061479
0.00636885
0.0065619
0.00672525
0.00685745
0.00695744
0.00702457
0.0070586
0.00705977
0.0070288
0.00696687
0.00687563
0.00675722
0.0066142
0.00644959
0.00626677
0.00606952
0.00586191
0.00564831
0.00543332
0.0052217
0.00501834
0.00482813
0.00465593
0.00450646
0.00438412
0.0042925
0.00423481
0.0042192
0.00425197
0.000350538
0.000294142
0.000214316
0.000112919
-6.63347e-06
-0.000139343
-0.000280471
-0.00042571
-0.00057115
-0.00071332
-0.00084922
-0.000976299
-0.00109242
-0.00119583
-0.00128509
-0.00135903
-0.00141673
-0.00145743
-0.00148054
-0.00148558
-0.00147219
-0.00144006
-0.00138896
-0.00131872
-0.00122922
-0.00112041
-0.000992307
-0.000844982
-0.000678604
-0.000493432
-0.000289836
-6.83066e-05
0.000170528
0.000425891
0.000696841
0.000982269
0.00128088
0.0015912
0.00191156
0.00224012
0.00257483
0.00291349
0.00325375
0.00359309
0.00392891
0.00425849
0.00457909
0.00488791
0.0051822
0.00545927
0.00571651
0.0059515
0.00616198
0.00634598
0.00650177
0.00662797
0.00672358
0.00678796
0.00682092
0.00682269
0.00679397
0.00673589
0.00665007
0.00653853
0.00640374
0.00624856
0.00607622
0.00589027
0.00569455
0.00549313
0.00529028
0.0050904
0.00489795
0.00471737
0.00455305
0.00440924
0.00428993
0.00419851
0.00413819
0.0041167
0.00414018
0.000549258
0.000459236
0.000358749
0.000246065
0.000120532
-1.38142e-05
-0.00015307
-0.00029386
-0.000433083
-0.000567944
-0.000696
-0.000815153
-0.000923635
-0.00101997
-0.00110294
-0.00117154
-0.00122498
-0.00126258
-0.00128381
-0.00128824
-0.00127549
-0.00124527
-0.00119735
-0.00113152
-0.00104765
-0.00094565
-0.000825482
-0.000687185
-0.00053087
-0.000356741
-0.000165104
4.36183e-05
0.00026887
0.000509953
0.000766012
0.00103602
0.00131879
0.00161294
0.0019169
0.00222892
0.00254709
0.00286932
0.00319333
0.00351676
0.00383709
0.00415171
0.00445799
0.00475322
0.00503476
0.00529998
0.00554638
0.00577159
0.00597343
0.00614997
0.00629954
0.0064208
0.00651275
0.00657478
0.00660669
0.00660872
0.00658151
0.00652618
0.00644426
0.00633772
0.00620892
0.00606058
0.00589579
0.00571792
0.0055306
0.00533765
0.00514306
0.00495091
0.00476529
0.00459028
0.00442986
0.00428789
0.00416799
0.00407334
0.00400702
0.00397534
0.00398303
0.000770295
0.000643261
0.00051877
0.000391263
0.000256029
0.0001163
-2.47253e-05
-0.000164512
-0.000300711
-0.000431165
-0.000553971
-0.000667491
-0.000770332
-0.000861322
-0.000939492
-0.00100404
-0.00105429
-0.00108971
-0.00110984
-0.00111427
-0.0011027
-0.00107482
-0.0010304
-0.00096923
-0.000891136
-0.000795993
-0.000683724
-0.000554312
-0.000407811
-0.000244357
-6.41871e-05
0.000132353
0.000344788
0.000572507
0.000814743
0.00107057
0.00133888
0.00161839
0.00190765
0.002205
0.00250862
0.00281652
0.00312653
0.00343635
0.00374357
0.00404567
0.00434007
0.00462415
0.00489532
0.00515101
0.00538875
0.00560623
0.0058013
0.00597203
0.00611679
0.00623421
0.00632333
0.0063835
0.00641452
0.00641658
0.00639032
0.00633678
0.00625745
0.00615421
0.00602933
0.00588545
0.0057255
0.00555272
0.00537054
0.0051826
0.00499263
0.00480444
0.00462184
0.0044486
0.00428837
0.00414464
0.00402072
0.00391958
0.00384412
0.00379866
0.00378595
0.00100418
0.00083846
0.000687747
0.00054286
0.000395125
0.000247106
0.000101412
-4.01848e-05
-0.000176024
-0.000304544
-0.000424366
-0.000534296
-0.00063332
-0.000720585
-0.000795376
-0.000857101
-0.000905259
-0.000939429
-0.000959246
-0.000964386
-0.000954561
-0.000929506
-0.000888977
-0.000832753
-0.000760638
-0.000672466
-0.000568112
-0.0004475
-0.000310619
-0.000157535
1.15959e-05
0.00019651
0.000396821
0.000612009
0.000841401
0.00108416
0.0013393
0.00160561
0.00188174
0.00216613
0.00245705
0.00275258
0.00305066
0.00334905
0.0036454
0.00393725
0.00422208
0.0044973
0.00476036
0.00500871
0.00523991
0.00545164
0.00564175
0.0058083
0.00594965
0.00606441
0.00615158
0.0062105
0.00624091
0.00624298
0.00621727
0.0061648
0.00608699
0.00598564
0.00586296
0.00572147
0.00556401
0.00539369
0.00521379
0.00502778
0.0048392
0.00465164
0.00446868
0.00429381
0.00413042
0.0039817
0.00385068
0.00374014
0.00365278
0.00359072
0.00355449
0.00124266
0.00103763
0.000859397
0.000695382
0.000533118
0.000374617
0.000221993
7.63328e-05
-6.13342e-05
-0.000190004
-0.000308788
-0.000416928
-0.00051378
-0.000598807
-0.000671559
-0.000731659
-0.000778784
-0.000812646
-0.000832983
-0.000839548
-0.000832097
-0.000810392
-0.000774194
-0.00072327
-0.000657395
-0.000576364
-0.00048
-0.000368165
-0.000240776
-9.78211e-05
6.0628e-05
0.000234397
0.000423195
0.000626597
0.00084403
0.00107476
0.00131788
0.00157231
0.00183676
0.00210978
0.00238971
0.00267471
0.00296279
0.00325176
0.00353934
0.00382309
0.00410053
0.00436908
0.0046262
0.00486934
0.00509603
0.00530394
0.00549089
0.00565491
0.00579429
0.00590763
0.00599384
0.00605223
0.00608248
0.00608469
0.00605939
0.00600751
0.0059304
0.00582983
0.0057079
0.00556707
0.00541009
0.00523994
0.00505982
0.00487304
0.004683
0.00449311
0.00430676
0.00412724
0.00395771
0.00380114
0.00366027
0.00353779
0.00343621
0.00335537
0.0032936
0.00147857
0.00123425
0.00102787
0.000843607
0.000665394
0.000494797
0.000333509
0.000182002
4.07265e-05
-8.98299e-05
-0.000209244
-0.000317169
-0.000413323
-0.000497477
-0.000569445
-0.000629068
-0.000676198
-0.000710692
-0.000732394
-0.000741134
-0.00073672
-0.000718941
-0.000687564
-0.000642344
-0.000583027
-0.000509367
-0.000421128
-0.000318107
-0.000200146
-6.71479e-05
8.09058e-05
0.000243937
0.000421752
0.000614029
0.000820297
0.00103992
0.0012721
0.00151584
0.00176996
0.00203308
0.00230362
0.00257981
0.00285971
0.00314119
0.00342198
0.00369969
0.00397182
0.00423581
0.00448909
0.00472908
0.00495329
0.00515932
0.00534494
0.0055081
0.00564705
0.00576028
0.00584666
0.00590539
0.00593609
0.0059388
0.00591394
0.0058624
0.00578546
0.00568481
0.00556249
0.00542089
0.00526267
0.00509075
0.00490822
0.0047183
0.00452427
0.00432942
0.00413698
0.00395011
0.00377179
0.00360479
0.00345167
0.00331503
0.00319728
0.00309604
0.00300748
0.0017056
0.00142244
0.00118772
0.000982569
0.000787474
0.000603633
0.000432387
0.00027365
0.000127337
-6.54073e-06
-0.000127997
-0.000237077
-0.000333843
-0.000418367
-0.00049072
-0.000550955
-0.000599104
-0.000635161
-0.000659081
-0.000670769
-0.000670088
-0.000656852
-0.000630835
-0.000591777
-0.000539395
-0.000473394
-0.00039348
-0.00029938
-0.000190853
-6.77132e-05
7.01536e-05
0.00022277
0.000390048
0.00057177
0.000767573
0.000976928
0.00119913
0.00143329
0.0016783
0.00193288
0.00219551
0.0024645
0.00273793
0.00301372
0.00328963
0.00356326
0.00383211
0.0040936
0.00434511
0.00458401
0.00480775
0.00501386
0.00520001
0.00536408
0.0055042
0.00561878
0.00570657
0.00576669
0.00579866
0.0058024
0.00577828
0.00572709
0.00565003
0.00554872
0.00542515
0.00528163
0.00512077
0.00494542
0.0047586
0.00456347
0.00436322
0.00416106
0.00396014
0.00376349
0.00357399
0.00339429
0.00322678
0.00307407
0.00293853
0.00281563
0.0026995
0.00191808
0.00159679
0.00133388
0.00110756
0.000895026
0.000697171
0.000515034
0.000348016
0.000195541
5.71722e-05
-6.75127e-05
-0.000178929
-0.000277468
-0.000363489
-0.000437309
-0.00049919
-0.000549335
-0.000587874
-0.000614867
-0.000630297
-0.000634075
-0.000626039
-0.000605969
-0.000573586
-0.000528574
-0.000470586
-0.000399268
-0.000314267
-0.000215257
-0.000101959
2.58431e-05
0.000168279
0.000325369
0.000497008
0.000682941
0.00088275
0.00109583
0.00132139
0.00155842
0.00180571
0.00206182
0.00232509
0.00259368
0.00286551
0.00313835
0.0034098
0.00367733
0.00393833
0.00419011
0.00442998
0.00465529
0.00486347
0.0050521
0.00521892
0.00536195
0.00547947
0.0055701
0.00563284
0.00566708
0.00567264
0.00564978
0.00559919
0.005522
0.00541974
0.00529433
0.00514803
0.0049834
0.00480325
0.00461055
0.00440841
0.0042
0.00398846
0.00377691
0.00356831
0.0033655
0.00317103
0.00298723
0.00281677
0.00266205
0.00251649
0.0023723
0.00211088
0.00175234
0.00146161
0.0012141
0.000983868
0.00077153
0.000577863
0.000401791
0.000242282
9.84808e-05
-3.04211e-05
-0.000145188
-0.000246524
-0.000335062
-0.000411352
-0.000475856
-0.000528939
-0.000570864
-0.00060179
-0.00062177
-0.000630762
-0.000628624
-0.000615134
-0.000589996
-0.000552851
-0.000503301
-0.000440921
-0.000365278
-0.000275955
-0.000172572
-5.48062e-05
7.75833e-05
0.000224732
0.000386651
0.0005632
0.000754073
0.000958774
0.00117661
0.00140666
0.00164779
0.00189864
0.0021576
0.00242285
0.00269236
0.00296387
0.00323498
0.00350312
0.00376561
0.00401971
0.00426262
0.00449158
0.00470391
0.00489704
0.00506858
0.00521639
0.0053386
0.00543367
0.00550047
0.00553822
0.00554662
0.0055258
0.00547634
0.00539926
0.00529603
0.00516848
0.00501883
0.00484959
0.00466354
0.00446363
0.00425296
0.00403468
0.00381194
0.00358784
0.00336535
0.00314729
0.00293621
0.00273441
0.00254468
0.00236955
0.00220047
0.00202781
0.00227928
0.00188446
0.00156645
0.00129794
0.00104997
0.000822916
0.000617315
0.000431645
0.000264443
0.000114458
-1.94807e-05
-0.000138469
-0.000243506
-0.000335482
-0.000415172
-0.000483224
-0.000540158
-0.000586359
-0.000622077
-0.000647434
-0.000662422
-0.000666919
-0.000660695
-0.000643427
-0.000614716
-0.000574101
-0.000521082
-0.000455143
-0.000375768
-0.000282472
-0.000174818
-5.24497e-05
8.48913e-05
0.000237336
0.000404865
0.000587289
0.000784225
0.000995079
0.00121903
0.00145503
0.00170177
0.0019577
0.00222105
0.00248977
0.00276163
0.00303418
0.00330481
0.00357078
0.00382924
0.00407729
0.00431205
0.00453068
0.00473045
0.00490881
0.00506343
0.00519227
0.00529361
0.00536612
0.00540887
0.00542139
0.00540365
0.00535612
0.0052797
0.00517575
0.00504606
0.00489276
0.00471834
0.00452556
0.00431738
0.0040969
0.00386729
0.00363174
0.00339338
0.00315524
0.00292018
0.00269079
0.0024694
0.00225901
0.00206233
0.00186894
0.0016674
0.00241884
0.00198881
0.00164417
0.00135501
0.00108944
0.000847628
0.000629878
0.00043425
0.000258868
0.000102109
-3.75429e-05
-0.000161498
-0.000271036
-0.00036729
-0.000451245
-0.000523726
-0.000585395
-0.00063675
-0.000678126
-0.000709701
-0.000731501
-0.000743412
-0.000745191
-0.000736483
-0.00071684
-0.000685736
-0.000642592
-0.000586797
-0.000517734
-0.000434804
-0.000337453
-0.0002252
-9.76591e-05
4.54279e-05
0.000204169
0.000378498
0.000568148
0.000772635
0.000991239
0.00122299
0.00146666
0.00172074
0.00198349
0.0022529
0.00252671
0.00280244
0.00307742
0.00334883
0.00361372
0.00386907
0.00411183
0.00433901
0.00454769
0.00473512
0.00489877
0.00503638
0.00514603
0.00522616
0.00527566
0.00529385
0.00528055
0.00523604
0.00516112
0.00505703
0.00492546
0.00476851
0.00458863
0.00438857
0.0041713
0.00393996
0.00369778
0.00344801
0.00319388
0.00293849
0.00268482
0.00243554
0.00219309
0.00196071
0.00174137
0.00152284
0.00129193
0.00252542
0.0020613
0.00169077
0.00138142
0.00109853
0.000842062
0.0006121
0.000406301
0.000222395
5.84031e-05
-8.75219e-05
-0.000217088
-0.000331839
-0.00043314
-0.000522172
-0.000599924
-0.00066719
-0.000724571
-0.000772478
-0.000811136
-0.000840595
-0.000860744
-0.000871319
-0.00087193
-0.000862068
-0.000841138
-0.000808475
-0.000763368
-0.000705091
-0.000632927
-0.000546195
-0.000444283
-0.000326673
-0.000192968
-4.29284e-05
0.000123511
0.000306207
0.000504793
0.000718653
0.000946907
0.0011884
0.0014417
0.00170508
0.00197654
0.00225382
0.00253441
0.00281558
0.0030944
0.00336781
0.00363265
0.00388571
0.0041238
0.0043438
0.00454273
0.00471783
0.00486659
0.00498683
0.00507677
0.00513505
0.00516078
0.00515355
0.00511349
0.00504122
0.00493787
0.00480502
0.00464472
0.00445937
0.00425174
0.00402482
0.00378181
0.00352603
0.00326084
0.00298958
0.00271549
0.00244171
0.00217105
0.00190612
0.00165046
0.00140735
0.00116278
0.00090184
0.00259507
0.00209802
0.00170244
0.00137345
0.00107363
0.000802718
0.000560599
0.000344534
0.000151874
-1.97057e-05
-0.000172367
-0.000308103
-0.00042871
-0.000535769
-0.000630646
-0.000714482
-0.000788193
-0.000852472
-0.000907795
-0.000954425
-0.000992431
-0.00102169
-0.00104192
-0.00105268
-0.00105339
-0.00104339
-0.00102192
-0.00098816
-0.000941266
-0.000880397
-0.000804739
-0.000713541
-0.000606141
-0.000482001
-0.000340736
-0.000182143
-6.23088e-06
0.000186758
0.000396322
0.000621681
0.000861763
0.00111519
0.0013803
0.00165509
0.00193729
0.00222437
0.00251351
0.0028017
0.00308575
0.00336235
0.00362809
0.00387958
0.00411346
0.00432651
0.00451569
0.00467821
0.00481161
0.00491384
0.00498325
0.0050187
0.00501954
0.00498569
0.00491757
0.00481617
0.00468296
0.00451992
0.00432941
0.0041142
0.00387733
0.00362208
0.00335188
0.00307024
0.00278064
0.00248654
0.00219124
0.00189779
0.00160898
0.00132873
0.00106067
0.000789051
0.000497218
0.00262402
0.00209527
0.00167551
0.00132752
0.00101124
0.000726199
0.000472074
0.000245742
4.4186e-05
-0.000135251
-0.000295037
-0.000437436
-0.000564484
-0.000677968
-0.000779427
-0.000870142
-0.000951138
-0.00102319
-0.00108683
-0.00114236
-0.00118984
-0.00122914
-0.00125995
-0.00128176
-0.00129394
-0.00129573
-0.00128627
-0.00126464
-0.00122985
-0.00118095
-0.00111697
-0.00103702
-0.000940277
-0.000826055
-0.000693815
-0.000543205
-0.000374087
-0.000186569
1.89717e-05
0.000241866
0.000481136
0.00073548
0.00100327
0.00128255
0.00157103
0.00186615
0.00216502
0.00246454
0.00276137
0.00305203
0.00333294
0.00360044
0.00385094
0.00408092
0.00428704
0.0044662
0.00461563
0.00473294
0.00481617
0.00486388
0.00487515
0.00484963
0.00478754
0.00468967
0.00455739
0.00439254
0.00419749
0.00397499
0.00372815
0.00346033
0.0031751
0.00287615
0.00256716
0.00225183
0.0019337
0.00161606
0.00130199
0.000995796
0.000701557
0.000401725
7.78951e-05
0.00260867
0.00204949
0.00160651
0.00124021
0.000908007
0.000609223
0.000343315
0.000106789
-0.000103735
-0.000291235
-0.000458474
-0.000607979
-0.000742012
-0.000862558
-0.000971313
-0.00106969
-0.00115881
-0.00123953
-0.00131242
-0.0013778
-0.00143573
-0.00148607
-0.00152845
-0.00156231
-0.00158694
-0.00160149
-0.00160499
-0.00159639
-0.00157459
-0.00153848
-0.00148696
-0.00141895
-0.00133349
-0.00122973
-0.00110696
-0.000964666
-0.000802552
-0.000620578
-0.000418982
-0.000198309
4.05698e-05
0.000296438
0.00056773
0.000852521
0.00114854
0.00145316
0.00176347
0.00207624
0.00238801
0.00269511
0.00299374
0.00328
0.00355001
0.00379995
0.00402613
0.00422511
0.00439374
0.00452927
0.00462938
0.00469228
0.00471672
0.00470207
0.00464827
0.00455593
0.00442621
0.0042609
0.00406226
0.00383308
0.00357651
0.00329604
0.0029954
0.00267847
0.00234919
0.00201151
0.00166929
0.00132612
0.000985368
0.000651838
0.000330064
6.8882e-07
-0.000356506
0.00254556
0.0019573
0.00149209
0.00110824
0.000760715
0.000448628
0.00017122
-7.53741e-05
-0.000294884
-0.000490605
-0.000665584
-0.0008226
-0.000964134
-0.00109235
-0.00120911
-0.00131593
-0.00141403
-0.00150432
-0.00158742
-0.00166365
-0.00173307
-0.0017955
-0.00185053
-0.00189753
-0.0019357
-0.00196409
-0.00198162
-0.00198712
-0.00197934
-0.00195702
-0.00191889
-0.00186372
-0.00179038
-0.00169782
-0.00158518
-0.00145175
-0.00129706
-0.00112092
-0.000923411
-0.000704927
-0.000466221
-0.000208406
6.70278e-05
0.000358205
0.000662867
0.00097838
0.00130176
0.00162968
0.00195853
0.00228448
0.00260348
0.00291138
0.00320398
0.00347711
0.00372672
0.00394897
0.00414032
0.00429757
0.00441802
0.00449945
0.00454025
0.00453944
0.00449665
0.00441224
0.00428718
0.00412311
0.00392223
0.00368732
0.0034216
0.00312867
0.00281245
0.00247706
0.00212672
0.0017657
0.00139819
0.00102814
0.000659276
0.000296926
-5.38515e-05
-0.000414293
-0.000806502
0.0024314
0.00181545
0.00132908
0.000928473
0.000566278
0.000241378
-4.72033e-05
-0.000303694
-0.000532169
-0.000736233
-0.000919207
-0.00108412
-0.00123365
-0.00137015
-0.0014956
-0.00161166
-0.0017196
-0.0018204
-0.0019147
-0.00200283
-0.00208484
-0.0021605
-0.00222933
-0.00229065
-0.00234357
-0.00238702
-0.0024198
-0.00244059
-0.00244803
-0.00244066
-0.00241707
-0.00237584
-0.00231565
-0.00223527
-0.00213364
-0.00200985
-0.00186327
-0.0016935
-0.00150045
-0.00128436
-0.00104583
-0.000785865
-0.000505848
-0.000207592
0.000106677
0.00043432
0.000772299
0.0011172
0.00146529
0.00181251
0.00215461
0.00248713
0.00280555
0.00310533
0.00338202
0.00363132
0.00384924
0.00403212
0.00417677
0.00428053
0.00434135
0.00435782
0.00432924
0.00425565
0.00413779
0.00397712
0.00377575
0.00353644
0.00326247
0.00295758
0.00262588
0.00227175
0.00189975
0.00151448
0.00112055
0.000722287
0.000323828
-6.89069e-05
-0.000450291
-0.000843525
-0.0012727
0.00226303
0.00162087
0.00111445
0.000697935
0.000321761
-1.54235e-05
-0.000314815
-0.000580999
-0.000818391
-0.0010309
-0.0012221
-0.00139527
-0.00155329
-0.00169867
-0.00183353
-0.00195962
-0.0020783
-0.00219058
-0.00229712
-0.00239825
-0.002494
-0.00258409
-0.00266799
-0.00274493
-0.0028139
-0.00287375
-0.00292314
-0.00296061
-0.00298462
-0.00299358
-0.00298586
-0.00295989
-0.00291412
-0.00284713
-0.00275763
-0.00264455
-0.002507
-0.00234439
-0.00215644
-0.00194321
-0.00170513
-0.00144305
-0.00115824
-0.000852424
-0.000527774
-0.000186917
0.000167077
0.000530715
0.000900117
0.00127106
0.00163901
0.00199926
0.0023469
0.002677
0.00298465
0.0032651
0.00351382
0.00372664
0.00389982
0.00403018
0.00411516
0.00415288
0.00414224
0.00408288
0.00397527
0.00382064
0.003621
0.00337904
0.00309811
0.00278207
0.00243526
0.00206236
0.00166825
0.00125796
0.00083652
0.00040872
-2.08531e-05
-0.000445633
-0.000859368
-0.00128733
-0.00175572
0.00203747
0.00137063
0.000845329
0.000413808
2.43832e-05
-0.000324523
-0.000634333
-0.000909985
-0.00115623
-0.00137725
-0.00157692
-0.00175871
-0.0019257
-0.00208057
-0.00222555
-0.00236249
-0.00249282
-0.00261758
-0.00273745
-0.00285275
-0.00296346
-0.00306928
-0.00316959
-0.00326354
-0.00335002
-0.00342775
-0.00349526
-0.00355094
-0.00359309
-0.00361992
-0.00362965
-0.00362046
-0.00359062
-0.00353848
-0.00346254
-0.00336147
-0.00323416
-0.00307981
-0.0028979
-0.00268828
-0.0024512
-0.00218732
-0.00189778
-0.00158416
-0.00124858
-0.000893618
-0.00052236
-0.000138363
0.000254369
0.000651426
0.00104805
0.00143918
0.00181957
0.00218386
0.00252665
0.00284265
0.00312677
0.00337425
0.00358076
0.0037425
0.00385634
0.00391986
0.00393143
0.00389029
0.00379654
0.00365115
0.00345595
0.00321357
0.00292737
0.00260138
0.00224016
0.00184867
0.00143221
0.000996245
0.000546299
8.76493e-05
-0.000374603
-0.000833184
-0.00128116
-0.00174601
-0.00225617
0.0017519
0.00106201
0.000519047
7.34481e-05
-0.000328464
-0.000688502
-0.00100832
-0.0012932
-0.0015482
-0.00177783
-0.00198617
-0.00217695
-0.00235341
-0.00251838
-0.00267422
-0.00282285
-0.00296577
-0.00310406
-0.00323839
-0.00336907
-0.00349605
-0.00361896
-0.00373713
-0.00384959
-0.00395515
-0.00405238
-0.00413968
-0.00421529
-0.00427731
-0.0043238
-0.00435274
-0.00436212
-0.00434998
-0.00431443
-0.00425372
-0.00416627
-0.00405074
-0.00390604
-0.00373142
-0.0035265
-0.00329128
-0.00302623
-0.0027323
-0.00241094
-0.00206413
-0.00169441
-0.00130484
-0.000899021
-0.000481064
-5.55531e-05
0.000372507
0.000797753
0.00121455
0.00161706
0.00199938
0.00235565
0.00268016
0.00296747
0.00321259
0.00341104
0.00355901
0.00365345
0.00369216
0.00367385
0.00359819
0.00346582
0.00327834
0.00303828
0.00274901
0.00241468
0.00204007
0.0016305
0.00119166
0.000729527
0.000250149
-0.00024064
-0.000737176
-0.00123141
-0.00171566
-0.00221978
-0.00277459
0.00140368
0.000692449
0.0001331
-0.000325604
-0.00073921
-0.00110977
-0.00143916
-0.00173301
-0.0019967
-0.00223499
-0.00245223
-0.00265235
-0.00283878
-0.00301448
-0.00318193
-0.00334313
-0.00349962
-0.00365251
-0.00380248
-0.00394982
-0.00409444
-0.0042359
-0.00437346
-0.00450606
-0.00463239
-0.00475088
-0.0048598
-0.00495721
-0.00504105
-0.00510917
-0.00515933
-0.00518931
-0.0051969
-0.00517996
-0.00513646
-0.00506456
-0.00496264
-0.00482933
-0.00466361
-0.00446479
-0.00423265
-0.0039674
-0.00366978
-0.00334104
-0.00298304
-0.00259818
-0.0021895
-0.00176061
-0.0013157
-0.000859512
-0.000397286
6.52993e-05
0.000522207
0.000967133
0.00139362
0.00179517
0.00216541
0.00249816
0.00278768
0.00302871
0.0032167
0.00334784
0.00341927
0.00342907
0.0033764
0.0032615
0.00308566
0.00285125
0.00256163
0.00222103
0.00183448
0.00140765
0.000946672
0.000458048
-5.15738e-05
-0.000575753
-0.00110821
-0.00164004
-0.00216275
-0.00270873
-0.00331139
0.000990378
0.000259587
-0.000314809
-0.000785609
-0.00121009
-0.00159053
-0.00192906
-0.00223161
-0.00250389
-0.00275092
-0.00297729
-0.00318712
-0.00338403
-0.0035711
-0.00375093
-0.00392558
-0.00409665
-0.00426526
-0.0044321
-0.00459743
-0.00476112
-0.00492267
-0.00508126
-0.00523572
-0.00538462
-0.00552629
-0.0056588
-0.00578008
-0.00588787
-0.00597979
-0.00605342
-0.00610628
-0.00613589
-0.00613986
-0.00611587
-0.00606177
-0.00597565
-0.00585582
-0.00570094
-0.00551004
-0.00528257
-0.00501848
-0.00471823
-0.00438286
-0.00401402
-0.00361398
-0.00318569
-0.00273274
-0.00225937
-0.00177046
-0.00127145
-0.000768347
-0.000267579
0.000224054
0.00069951
0.00115163
0.00157328
0.00195751
0.00229772
0.0025878
0.0028223
0.00299661
0.00310705
0.00315099
0.00312696
0.00303469
0.00287511
0.00265034
0.00236368
0.00201943
0.00162285
0.00117995
0.000697368
0.000182156
-0.000358386
-0.000917151
-0.00148717
-0.00205862
-0.00262211
-0.00321278
-0.00386678
0.000509787
-0.000238707
-0.000826765
-0.00130862
-0.00174312
-0.0021328
-0.00248
-0.00279099
-0.00307176
-0.0033276
-0.00356332
-0.00378325
-0.00399115
-0.00419026
-0.00438324
-0.00457226
-0.00475894
-0.00494442
-0.0051294
-0.00531411
-0.00549836
-0.00568161
-0.00586293
-0.00604107
-0.00621449
-0.00638135
-0.0065396
-0.00668697
-0.00682101
-0.00693915
-0.00703872
-0.00711697
-0.00717119
-0.00719865
-0.00719677
-0.00716306
-0.00709527
-0.00699138
-0.0068497
-0.0066689
-0.00644811
-0.00618694
-0.00588555
-0.00554469
-0.00516578
-0.0047509
-0.00430287
-0.00382519
-0.00332214
-0.00279867
-0.00226045
-0.00171375
-0.00116541
-0.000622724
-9.33555e-05
0.000414835
0.00089392
0.00133608
0.00173376
0.00207991
0.00236811
0.00259275
0.00274926
0.00283414
0.0028452
0.00278152
0.00264357
0.00243317
0.00215345
0.00180878
0.00140459
0.000947276
0.000443959
-9.76811e-05
-0.000669651
-0.00126411
-0.00187334
-0.00248649
-0.00309322
-0.00373161
-0.00444078
-4.00753e-05
-0.000804338
-0.00140462
-0.00189645
-0.00234011
-0.00273836
-0.00309377
-0.00341292
-0.00370208
-0.0039668
-0.0042121
-0.0044425
-0.00466192
-0.00487372
-0.00508066
-0.00528497
-0.00548831
-0.00569185
-0.00589627
-0.00610177
-0.00630814
-0.00651475
-0.0067206
-0.00692434
-0.00712429
-0.00731851
-0.00750476
-0.00768061
-0.0078434
-0.00799035
-0.00811853
-0.00822496
-0.0083066
-0.00836046
-0.0083836
-0.0083732
-0.00832664
-0.00824152
-0.00811578
-0.00794771
-0.00773603
-0.00747998
-0.00717937
-0.00683463
-0.00644686
-0.00601791
-0.0055504
-0.00504773
-0.00451411
-0.00395458
-0.00337494
-0.00278175
-0.00218222
-0.00158417
-0.000995868
-0.000425927
0.000116877
0.000623777
0.00108621
0.00149604
0.00184574
0.00212863
0.00233904
0.00247251
0.00252595
0.00249769
0.0023876
0.00219709
0.00192906
0.00158785
0.00117909
0.000709512
0.000186754
-0.000380847
-0.000984542
-0.00161569
-0.00226575
-0.00292275
-0.00357529
-0.00426463
-0.00503311
-0.000660932
-0.00143896
-0.00204999
-0.00255069
-0.00300261
-0.00340875
-0.0037719
-0.00409893
-0.00439638
-0.00467004
-0.00492515
-0.0051664
-0.00539787
-0.00562302
-0.00584472
-0.00606524
-0.00628631
-0.0065091
-0.00673428
-0.00696203
-0.0071921
-0.00742379
-0.00765602
-0.00788733
-0.00811595
-0.00833978
-0.00855643
-0.00876327
-0.00895747
-0.009136
-0.0092957
-0.00943329
-0.00954547
-0.00962888
-0.00968026
-0.00969642
-0.00967434
-0.00961122
-0.00950458
-0.00935226
-0.00915258
-0.00890433
-0.00860692
-0.00826037
-0.00786545
-0.00742369
-0.00693744
-0.00640994
-0.00584531
-0.00524857
-0.00462565
-0.00398333
-0.00332919
-0.00267154
-0.00201929
-0.00138182
-0.000768795
-0.000190006
0.000344881
0.000826536
0.00124621
0.00159598
0.00186896
0.00205954
0.00216357
0.00217848
0.0021034
0.00193918
0.00168843
0.00135536
0.00094573
0.000466612
-7.38237e-05
-0.000666553
-0.00130201
-0.00197069
-0.00266313
-0.00336615
-0.00406718
-0.00481091
-0.00564313
-0.00135424
-0.00214396
-0.00276422
-0.00327266
-0.00373194
-0.00414527
-0.00451568
-0.0048503
-0.00515593
-0.0054386
-0.00570373
-0.0059562
-0.00620022
-0.00643938
-0.00667663
-0.0069143
-0.00715415
-0.00739738
-0.00764465
-0.00789612
-0.00815149
-0.00841
-0.0086705
-0.00893144
-0.00919091
-0.00944669
-0.00969622
-0.00993671
-0.0101651
-0.0103782
-0.0105725
-0.0107444
-0.0108905
-0.0110069
-0.01109
-0.0111363
-0.0111423
-0.0111048
-0.0110208
-0.0108877
-0.0107034
-0.0104661
-0.0101748
-0.00982901
-0.00942917
-0.00897638
-0.00847267
-0.00792103
-0.00732542
-0.00669079
-0.00602313
-0.00532939
-0.00461749
-0.00389621
-0.00317509
-0.00246429
-0.00177443
-0.00111635
-0.000500927
6.12116e-05
0.000559955
0.000985977
0.00133102
0.00158813
0.00175193
0.00181874
0.0017868
0.00165627
0.00142929
0.00110988
0.000703852
0.000218589
-0.000337211
-0.000953801
-0.00162075
-0.00232759
-0.00306388
-0.00381509
-0.00456739
-0.00536914
-0.00626984
-0.00212115
-0.00292046
-0.00354839
-0.00406343
-0.00452915
-0.00494897
-0.00532613
-0.00566805
-0.00598174
-0.00627346
-0.00654882
-0.00681286
-0.00706994
-0.00732374
-0.0075773
-0.00783302
-0.00809269
-0.00835754
-0.00862821
-0.00890485
-0.00918712
-0.00947421
-0.00976489
-0.0100575
-0.0103501
-0.0106402
-0.0109252
-0.0112021
-0.0114676
-0.0117182
-0.0119503
-0.0121601
-0.0123435
-0.0124966
-0.0126152
-0.0126955
-0.0127336
-0.0127256
-0.0126682
-0.0125583
-0.0123931
-0.0121704
-0.0118886
-0.0115468
-0.0111449
-0.0106834
-0.0101641
-0.00958958
-0.00896358
-0.00829092
-0.00757755
-0.00683056
-0.00605814
-0.00526949
-0.00447478
-0.00368495
-0.00291157
-0.00216664
-0.0014623
-0.000810581
-0.0002231
0.000289261
0.00071667
0.00105065
0.00128438
0.00141288
0.00143328
0.00134487
0.00114917
0.000849889
0.000452801
-3.44606e-05
-0.000602679
-0.00124136
-0.00193914
-0.00268454
-0.00346601
-0.00426757
-0.00507396
-0.00593752
-0.00691174
-0.00296253
-0.00376928