/*--------------------------------*- C++ -*----------------------------------*\
| =========                 |                                                 |
| \\      /  F ield         | OpenFOAM: The Open Source CFD Toolbox           |
|  \\    /   O peration     | Version:  2.1.1                                 |
|   \\  /    A nd           | Web:      www.OpenFOAM.org                      |
|    \\/     M anipulation  |                                                 |
\*---------------------------------------------------------------------------*/
FoamFile
{
    version     2.0;
    format      ascii;
    class       surfaceScalarField;
    location    "1";
    object      phi;
}
// * * * * * * * * * * * * * * * * * * * * * * * * * * * * * * * * * * * * * //

dimensions      [0 3 -1 0 0 0 0];

internalField   nonuniform List<scalar> 
12960
(
5.36513e-11
-5.36756e-11
1.49423e-10
-9.57715e-11
2.2843e-10
-7.90074e-11
2.58314e-10
-2.98834e-11
2.2442e-10
3.38935e-11
1.21741e-10
1.0268e-10
-4.92961e-11
1.71037e-10
-2.85305e-10
2.36009e-10
-5.81323e-10
2.96018e-10
-9.31616e-10
3.50293e-10
-1.33018e-09
3.98561e-10
-1.77102e-09
4.40845e-10
-2.24836e-09
4.77342e-10
-2.75671e-09
5.08345e-10
-3.29091e-09
5.34199e-10
-3.84617e-09
5.55259e-10
-4.41804e-09
5.71875e-10
-5.00241e-09
5.8437e-10
-5.59545e-09
5.93033e-10
-6.19356e-09
5.98113e-10
-6.79337e-09
5.99814e-10
-7.39167e-09
5.98299e-10
-7.98536e-09
5.93689e-10
-8.57143e-09
5.86065e-10
-9.1469e-09
5.75476e-10
-9.70885e-09
5.61943e-10
-1.02543e-08
5.45466e-10
-1.07803e-08
5.26026e-10
-1.12839e-08
5.03598e-10
-1.17621e-08
4.78155e-10
-1.22118e-08
4.49675e-10
-1.26299e-08
4.18145e-10
-1.30135e-08
3.83574e-10
-1.33595e-08
3.45991e-10
-1.36649e-08
3.05456e-10
-1.3927e-08
2.62062e-10
-1.41429e-08
2.15943e-10
-1.43102e-08
1.67271e-10
-1.44265e-08
1.16265e-10
-1.44897e-08
6.31896e-11
-1.4498e-08
8.35739e-12
-1.44501e-08
-4.78729e-11
-1.4345e-08
-1.05096e-10
-1.41822e-08
-1.62863e-10
-1.39615e-08
-2.20684e-10
-1.36835e-08
-2.78035e-10
-1.33491e-08
-3.3436e-10
-1.296e-08
-3.89081e-10
-1.25184e-08
-4.41604e-10
-1.20271e-08
-4.91326e-10
-1.14894e-08
-5.37651e-10
-1.09095e-08
-5.79989e-10
-1.02917e-08
-6.17777e-10
-9.64119e-09
-6.50484e-10
-8.96357e-09
-6.77622e-10
-8.26482e-09
-6.98757e-10
-7.5513e-09
-7.13518e-10
-6.82969e-09
-7.21604e-10
-6.1069e-09
-7.22796e-10
-5.38994e-09
-7.16959e-10
-4.68589e-09
-7.04049e-10
-4.00177e-09
-6.84116e-10
-3.34447e-09
-6.57307e-10
-2.7206e-09
-6.23864e-10
-2.13647e-09
-5.84127e-10
-1.59794e-09
-5.38533e-10
-1.11033e-09
-4.87612e-10
-6.78339e-10
-4.3199e-10
-3.05951e-10
-3.72388e-10
3.68798e-12
-3.09639e-10
2.48468e-10
-2.4478e-10
4.2724e-10
-1.78772e-10
5.40249e-10
-1.13009e-10
5.89349e-10
-4.91007e-11
5.78437e-10
1.09121e-11
5.14172e-10
6.42658e-11
4.0703e-10
1.07141e-10
2.72936e-10
1.34094e-10
1.35835e-10
1.37101e-10
3.13825e-11
1.04453e-10
3.13825e-11
9.62622e-11
-1.49938e-10
2.22648e-10
-2.22157e-10
2.85461e-10
-1.41821e-10
2.27302e-10
2.82759e-11
1.54773e-11
2.45718e-10
-3.64776e-10
4.82933e-10
-9.16287e-10
7.22548e-10
-1.63404e-09
9.53762e-10
-2.50822e-09
1.1702e-09
-3.52622e-09
1.36829e-09
-4.67394e-09
1.54629e-09
-5.93673e-09
1.70363e-09
-7.29991e-09
1.84052e-09
-8.74919e-09
1.95762e-09
-1.02708e-08
2.05584e-09
-1.18518e-08
2.13624e-09
-1.34798e-08
2.19991e-09
-1.51434e-08
2.24789e-09
-1.68315e-08
2.28113e-09
-1.85338e-08
2.30047e-09
-2.02406e-08
2.30663e-09
-2.19425e-08
2.30017e-09
-2.36303e-08
2.28153e-09
-2.52953e-08
2.25104e-09
-2.69287e-08
2.20889e-09
-2.8522e-08
2.1552e-09
-3.00665e-08
2.09001e-09
-3.15538e-08
2.01331e-09
-3.29753e-08
1.92505e-09
-3.43223e-08
1.82521e-09
-3.55864e-08
1.71376e-09
-3.6759e-08
1.59073e-09
-3.78316e-08
1.45622e-09
-3.87961e-08
1.3104e-09
-3.96442e-08
1.15358e-09
-4.03683e-08
9.86171e-10
-4.09611e-08
8.0872e-10
-4.14157e-08
6.2194e-10
-4.17262e-08
4.26697e-10
-4.1887e-08
2.24026e-10
-4.18938e-08
1.51309e-11
-4.1743e-08
-1.98618e-10
-4.14324e-08
-4.15687e-10
-4.09609e-08
-6.34386e-10
-4.03287e-08
-8.5289e-10
-3.95375e-08
-1.06924e-09
-3.85905e-08
-1.2814e-09
-3.74923e-08
-1.48721e-09
-3.62494e-08
-1.68451e-09
-3.48697e-08
-1.87108e-09
-3.33626e-08
-2.04474e-09
-3.17392e-08
-2.20336e-09
-3.00121e-08
-2.34488e-09
-2.81952e-08
-2.46738e-09
-2.63037e-08
-2.5691e-09
-2.4354e-08
-2.64846e-09
-2.23634e-08
-2.70413e-09
-2.035e-08
-2.73505e-09
-1.83324e-08
-2.74042e-09
-1.63295e-08
-2.71979e-09
-1.43606e-08
-2.67302e-09
-1.24444e-08
-2.60031e-09
-1.05994e-08
-2.50224e-09
-8.84357e-09
-2.37973e-09
-7.19362e-09
-2.23408e-09
-5.66522e-09
-2.06694e-09
-4.27249e-09
-1.88034e-09
-3.02781e-09
-1.67667e-09
-1.94147e-09
-1.45872e-09
-1.02139e-09
-1.22972e-09
-2.7282e-10
-9.93354e-10
3.02289e-10
-7.5388e-10
7.05615e-10
-5.16335e-10
9.43276e-10
-2.86762e-10
1.02679e-09
-7.26032e-11
9.74355e-10
1.16702e-10
8.12546e-10
2.6895e-10
5.784e-10
3.6824e-10
3.2143e-10
3.94072e-10
1.03992e-10
3.21891e-10
1.35374e-10
8.04937e-11
-2.30431e-10
1.44119e-10
-2.85783e-10
8.60548e-11
-8.37564e-11
-1.59629e-10
2.7396e-10
-6.32848e-10
7.18937e-10
-1.35338e-09
1.20346e-09
-2.32606e-09
1.69523e-09
-3.5454e-09
2.1731e-09
-4.99887e-09
2.62367e-09
-6.66948e-09
3.0389e-09
-8.53756e-09
3.41437e-09
-1.05821e-08
3.74815e-09
-1.27816e-08
4.04e-09
-1.51147e-08
4.29073e-09
-1.75607e-08
4.50182e-09
-2.00995e-08
4.6751e-09
-2.27122e-08
4.81255e-09
-2.53804e-08
4.91612e-09
-2.80869e-08
4.98765e-09
-3.08152e-08
5.0288e-09
-3.35496e-08
5.04097e-09
-3.62747e-08
5.02532e-09
-3.8976e-08
4.98277e-09
-4.16389e-08
4.91398e-09
-4.42494e-08
4.81942e-09
-4.67936e-08
4.69938e-09
-4.92576e-08
4.55399e-09
-5.16276e-08
4.38332e-09
-5.38899e-08
4.18736e-09
-5.60309e-08
3.96614e-09
-5.80368e-08
3.71972e-09
-5.98943e-08
3.44825e-09
-6.15902e-08
3.15206e-09
-6.31114e-08
2.83164e-09
-6.44455e-08
2.48771e-09
-6.55806e-08
2.12128e-09
-6.65056e-08
1.73362e-09
-6.721e-08
1.32634e-09
-6.76846e-08
9.01368e-10
-6.79216e-08
4.60984e-10
-6.79143e-08
7.81851e-12
-6.76577e-08
-4.55158e-10
-6.71488e-08
-9.24633e-10
-6.63862e-08
-1.39699e-09
-6.53708e-08
-1.86832e-09
-6.41055e-08
-2.33447e-09
-6.25959e-08
-2.79107e-09
-6.08494e-08
-3.23363e-09
-5.88764e-08
-3.65752e-09
-5.66894e-08
-4.05812e-09
-5.43033e-08
-4.43083e-09
-5.17355e-08
-4.77116e-09
-4.90056e-08
-5.07482e-09
-4.61351e-08
-5.33779e-09
-4.31479e-08
-5.55639e-09
-4.0069e-08
-5.72735e-09
-3.69252e-08
-5.8479e-09
-3.37444e-08
-5.91581e-09
-3.05554e-08
-5.92948e-09
-2.73872e-08
-5.88796e-09
-2.42692e-08
-5.791e-09
-2.12304e-08
-5.63907e-09
-1.82993e-08
-5.43343e-09
-1.55029e-08
-5.17608e-09
-1.28672e-08
-4.8698e-09
-1.04159e-08
-4.51817e-09
-8.17072e-09
-4.12556e-09
-6.15024e-09
-3.69715e-09
-4.36999e-09
-3.23898e-09
-2.84172e-09
-2.75798e-09
-1.57292e-09
-2.26215e-09
-5.66133e-10
-1.76067e-09
1.81758e-10
-1.26423e-09
6.80446e-10
-7.8545e-10
9.47323e-10
-3.3948e-10
1.00885e-09
5.51702e-11
9.02131e-10
3.75675e-10
6.7661e-10
5.9376e-10
3.95542e-10
6.7514e-10
1.3687e-10
5.80563e-10
2.72245e-10
3.19056e-11
-2.62337e-10
-2.66192e-11
-2.27258e-10
-2.75125e-10
1.64749e-10
-7.7826e-10
7.77096e-10
-1.57576e-09
1.51644e-09
-2.68763e-09
2.31532e-09
-4.11853e-09
3.12613e-09
-5.86178e-09
3.91635e-09
-7.9026e-09
4.6645e-09
-1.02207e-08
5.35698e-09
-1.27922e-08
5.98585e-09
-1.55912e-08
6.54716e-09
-1.85909e-08
7.03973e-09
-2.17644e-08
7.46421e-09
-2.5085e-08
7.82248e-09
-2.8527e-08
8.11708e-09
-3.20654e-08
8.3509e-09
-3.56761e-08
8.52686e-09
-3.93362e-08
8.6478e-09
-4.30237e-08
8.71627e-09
-4.67172e-08
8.7345e-09
-5.03963e-08
8.70435e-09
-5.40408e-08
8.62732e-09
-5.76314e-08
8.50452e-09
-6.11487e-08
8.33677e-09
-6.45739e-08
8.12458e-09
-6.78882e-08
7.86831e-09
-7.1073e-08
7.56812e-09
-7.41098e-08
7.22417e-09
-7.69803e-08
6.83659e-09
-7.96662e-08
6.40565e-09
-8.21497e-08
5.93178e-09
-8.44133e-08
5.41565e-09
-8.644e-08
4.85827e-09
-8.82133e-08
4.26103e-09
-8.97178e-08
3.62576e-09
-9.09389e-08
2.95478e-09
-9.18635e-08
2.25092e-09
-9.24797e-08
1.5176e-09
-9.27775e-08
7.58772e-10
-9.27487e-08
-2.10121e-11
-9.23872e-08
-8.16652e-10
-9.16893e-08
-1.62249e-09
-9.0654e-08
-2.43236e-09
-8.92827e-08
-3.23964e-09
-8.75798e-08
-4.0373e-09
-8.55529e-08
-4.818e-09
-8.32124e-08
-5.57413e-09
-8.05719e-08
-6.29798e-09
-7.76483e-08
-6.98177e-09
-7.44613e-08
-7.61781e-09
-7.10339e-08
-8.19861e-09
-6.73917e-08
-8.71701e-09
-6.35632e-08
-9.16631e-09
-5.95792e-08
-9.54037e-09
-5.54727e-08
-9.83378e-09
-5.12787e-08
-1.00419e-08
-4.70334e-08
-1.01611e-08
-4.27741e-08
-1.01887e-08
-3.85389e-08
-1.01232e-08
-3.43657e-08
-9.96414e-09
-3.02924e-08
-9.71241e-09
-2.63557e-08
-9.37014e-09
-2.2591e-08
-8.94077e-09
-1.90318e-08
-8.42904e-09
-1.57089e-08
-7.84105e-09
-1.26502e-08
-7.18425e-09
-9.87988e-09
-6.46747e-09
-7.41786e-09
-5.701e-09
-5.27918e-09
-4.89666e-09
-3.47333e-09
-4.068e-09
-2.00348e-09
-3.23051e-09
-8.65687e-10
-2.40202e-09
-4.78661e-11
-1.60327e-09
4.71248e-10
-8.58595e-10
7.23307e-10
-1.96889e-10
7.51721e-10
3.47261e-10
6.13053e-10
7.32428e-10
3.785e-10
9.09693e-10
1.36083e-10
8.2298e-10
4.08328e-10
-3.29049e-11
-2.29432e-10
-2.50718e-10
-9.4448e-12
-7.36766e-10
6.50797e-10
-1.54693e-09
1.58726e-09
-2.71545e-09
2.68497e-09
-4.25878e-09
3.85865e-09
-6.17897e-09
5.04632e-09
-8.46692e-09
6.2043e-09
-1.11052e-08
7.30279e-09
-1.40705e-08
8.32223e-09
-1.73353e-08
9.2507e-09
-2.08699e-08
1.00817e-08
-2.46431e-08
1.08129e-08
-2.86232e-08
1.14444e-08
-3.2779e-08
1.19782e-08
-3.70795e-08
1.24176e-08
-4.14948e-08
1.27662e-08
-4.59958e-08
1.30279e-08
-5.05546e-08
1.32066e-08
-5.51441e-08
1.33057e-08
-5.9738e-08
1.33284e-08
-6.43109e-08
1.32773e-08
-6.88381e-08
1.31545e-08
-7.32952e-08
1.29616e-08
-7.76583e-08
1.26999e-08
-8.1904e-08
1.23702e-08
-8.60088e-08
1.19732e-08
-8.99499e-08
1.15092e-08
-9.37042e-08
1.09785e-08
-9.72492e-08
1.03816e-08
-1.00563e-07
9.71906e-09
-1.03623e-07
8.9917e-09
-1.06408e-07
8.20074e-09
-1.08897e-07
7.34788e-09
-1.11072e-07
6.43542e-09
-1.12912e-07
5.46628e-09
-1.14401e-07
4.4441e-09
-1.15524e-07
3.37332e-09
-1.16265e-07
2.25916e-09
-1.16614e-07
1.10769e-09
-1.16561e-07
-7.41866e-11
-1.16099e-07
-1.27876e-09
-1.15224e-07
-2.49753e-09
-1.13935e-07
-3.72125e-09
-1.12235e-07
-4.94001e-09
-1.10129e-07
-6.14336e-09
-1.07626e-07
-7.32037e-09
-1.04741e-07
-8.45976e-09
-1.01489e-07
-9.55008e-09
-9.78905e-08
-1.05799e-08
-9.39706e-08
-1.15377e-08
-8.97566e-08
-1.24126e-08
-8.52796e-08
-1.3194e-08
-8.0574e-08
-1.3872e-08
-7.56768e-08
-1.44376e-08
-7.06278e-08
-1.48828e-08
-6.54689e-08
-1.52008e-08
-6.02437e-08
-1.53863e-08
-5.49971e-08
-1.54354e-08
-4.97746e-08
-1.53457e-08
-4.46219e-08
-1.51168e-08
-3.95842e-08
-1.47501e-08
-3.47058e-08
-1.42486e-08
-3.0029e-08
-1.36176e-08
-2.55939e-08
-1.28641e-08
-2.14377e-08
-1.19973e-08
-1.75937e-08
-1.10282e-08
-1.4091e-08
-9.97023e-09
-1.09533e-08
-8.83863e-09
-8.19895e-09
-7.65105e-09
-5.83934e-09
-6.42761e-09
-3.87868e-09
-5.19117e-09
-2.3129e-09
-3.9678e-09
-1.12881e-09
-2.78736e-09
-3.03073e-10
-1.68433e-09
1.98788e-10
-6.9875e-10
4.23503e-10
1.22546e-10
4.31275e-10
7.24657e-10
2.97271e-10
1.0437e-09
1.14157e-10
1.00609e-09
5.22485e-10
-1.05264e-10
-1.24168e-10
-5.03754e-10
3.89044e-10
-1.25743e-09
1.40447e-09
-2.40829e-09
2.73811e-09
-3.98119e-09
4.25787e-09
-5.986e-09
5.86346e-09
-8.41995e-09
7.48026e-09
-1.12701e-08
9.05444e-09
-1.45156e-08
1.05483e-08
-1.81298e-08
1.19365e-08
-2.2082e-08
1.32029e-08
-2.63387e-08
1.43385e-08
-3.08651e-08
1.53393e-08
-3.56256e-08
1.62049e-08
-4.05847e-08
1.69373e-08
-4.57073e-08
1.75402e-08
-5.09592e-08
1.8018e-08
-5.63068e-08
1.83755e-08
-6.17177e-08
1.86176e-08
-6.71605e-08
1.87485e-08
-7.26045e-08
1.87724e-08
-7.80199e-08
1.86926e-08
-8.33774e-08
1.8512e-08
-8.86484e-08
1.82327e-08
-9.38049e-08
1.78564e-08
-9.8819e-08
1.73844e-08
-1.03663e-07
1.68175e-08
-1.08311e-07
1.61565e-08
-1.12734e-07
1.54021e-08
-1.16908e-07
1.4555e-08
-1.20805e-07
1.36161e-08
-1.244e-07
1.2587e-08
-1.27669e-07
1.14696e-08
-1.30587e-07
1.02664e-08
-1.33133e-07
8.98083e-09
-1.35284e-07
7.61721e-09
-1.3702e-07
6.18079e-09
-1.38325e-07
4.67787e-09
-1.39182e-07
3.11588e-09
-1.39577e-07
1.50332e-09
-1.39501e-07
-1.50136e-10
-1.38946e-07
-1.83375e-09
-1.37908e-07
-3.53573e-09
-1.36386e-07
-5.24329e-09
-1.34383e-07
-6.94277e-09
-1.31907e-07
-8.61977e-09
-1.28968e-07
-1.02593e-08
-1.25582e-07
-1.18459e-08
-1.21768e-07
-1.33638e-08
-1.17551e-07
-1.47975e-08
-1.12957e-07
-1.61312e-08
-1.0802e-07
-1.73501e-08
-1.02774e-07
-1.84397e-08
-9.72595e-08
-1.93864e-08
-9.1519e-08
-2.01781e-08
-8.55979e-08
-2.08038e-08
-7.95444e-08
-2.12543e-08
-7.34084e-08
-2.15223e-08
-6.72413e-08
-2.16025e-08
-6.10953e-08
-2.14918e-08
-5.50227e-08
-2.11894e-08
-4.90754e-08
-2.06973e-08
-4.33042e-08
-2.00199e-08
-3.77577e-08
-1.91641e-08
-3.24819e-08
-1.81398e-08
-2.75196e-08
-1.69596e-08
-2.29092e-08
-1.56387e-08
-1.86841e-08
-1.41954e-08
-1.4872e-08
-1.26507e-08
-1.14941e-08
-1.1029e-08
-8.56415e-09
-9.35752e-09
-6.0879e-09
-7.66742e-09
-4.06196e-09
-5.99374e-09
-2.47315e-09
-4.37618e-09
-1.29757e-09
-2.85991e-09
-4.99819e-10
-1.4965e-09
-3.2046e-11
-3.45227e-10
1.67015e-10
5.25595e-10
1.73298e-10
1.03741e-09
7.94532e-11
1.09994e-09
6.01938e-10
-1.80451e-10
5.62829e-11
-7.70908e-10
9.79502e-10
-1.80984e-09
2.4434e-09
-3.32276e-09
4.25104e-09
-5.32245e-09
6.25756e-09
-7.80985e-09
8.35086e-09
-1.07755e-08
1.04459e-08
-1.42012e-08
1.24802e-08
-1.80619e-08
1.4409e-08
-2.23271e-08
1.62016e-08
-2.69625e-08
1.78383e-08
-3.19313e-08
1.93073e-08
-3.71952e-08
2.06031e-08
-4.2715e-08
2.17247e-08
-4.84517e-08
2.2674e-08
-5.43665e-08
2.3455e-08
-6.04212e-08
2.40728e-08
-6.65787e-08
2.4533e-08
-7.28026e-08
2.48414e-08
-7.90574e-08
2.50033e-08
-8.53085e-08
2.50236e-08
-9.15223e-08
2.49064e-08
-9.76655e-08
2.46552e-08
-1.03706e-07
2.42728e-08
-1.09611e-07
2.37614e-08
-1.15349e-07
2.31227e-08
-1.2089e-07
2.2358e-08
-1.26201e-07
2.14683e-08
-1.31254e-07
2.04547e-08
-1.36017e-07
1.93184e-08
-1.40462e-07
1.80611e-08
-1.4456e-07
1.66848e-08
-1.48283e-07
1.51923e-08
-1.51604e-07
1.35873e-08
-1.54498e-07
1.18746e-08
-1.56941e-07
1.00601e-08
-1.5891e-07
8.15074e-09
-1.60388e-07
6.15516e-09
-1.61355e-07
4.08321e-09
-1.61798e-07
1.94621e-09
-1.61705e-07
-2.43098e-10
-1.61068e-07
-2.47056e-09
-1.59883e-07
-4.7207e-09
-1.5815e-07
-6.97681e-09
-1.55871e-07
-9.22105e-09
-1.53057e-07
-1.14347e-08
-1.49718e-07
-1.35981e-08
-1.45872e-07
-1.56913e-08
-1.41542e-07
-1.7694e-08
-1.36754e-07
-1.95858e-08
-1.31539e-07
-2.13465e-08
-1.25932e-07
-2.29566e-08
-1.19974e-07
-2.43976e-08
-1.13709e-07
-2.56519e-08
-1.07183e-07
-2.67036e-08
-1.00448e-07
-2.75388e-08
-9.35571e-08
-2.81453e-08
-8.65657e-08
-2.85137e-08
-7.9531e-08
-2.86371e-08
-7.25113e-08
-2.85115e-08
-6.55647e-08
-2.8136e-08
-5.87493e-08
-2.75128e-08
-5.21214e-08
-2.66477e-08
-4.57356e-08
-2.55499e-08
-3.96435e-08
-2.4232e-08
-3.38927e-08
-2.27103e-08
-2.85266e-08
-2.10048e-08
-2.35829e-08
-1.91391e-08
-1.90931e-08
-1.71405e-08
-1.50816e-08
-1.50405e-08
-1.15648e-08
-1.28743e-08
-8.55053e-09
-1.06817e-08
-6.03683e-09
-8.50744e-09
-4.01159e-09
-6.40142e-09
-2.45166e-09
-4.41984e-09
-1.32217e-09
-2.62599e-09
-5.75886e-10
-1.09151e-09
-1.5252e-10
1.02229e-10
2.21315e-11
8.62762e-10
3.73521e-11
1.08472e-09
6.39291e-10
-2.56034e-10
3.12317e-10
-1.04313e-09
1.7666e-09
-2.37643e-09
3.77671e-09
-4.26366e-09
6.13826e-09
-6.70386e-09
8.69776e-09
-9.68741e-09
1.13344e-08
-1.31967e-08
1.39552e-08
-1.72071e-08
1.64906e-08
-2.16883e-08
1.88902e-08
-2.66055e-08
2.11188e-08
-3.19206e-08
2.31534e-08
-3.75932e-08
2.49799e-08
-4.35815e-08
2.65915e-08
-4.98434e-08
2.79865e-08
-5.63363e-08
2.91669e-08
-6.30182e-08
3.01369e-08
-6.98476e-08
3.09022e-08
-7.6784e-08
3.14694e-08
-8.37875e-08
3.18449e-08
-9.08192e-08
3.20351e-08
-9.78411e-08
3.20455e-08
-1.04816e-07
3.18811e-08
-1.11707e-07
3.15462e-08
-1.18478e-07
3.1044e-08
-1.25094e-07
3.03773e-08
-1.3152e-07
2.95483e-08
-1.3772e-07
2.85586e-08
-1.43662e-07
2.74098e-08
-1.4931e-07
2.61034e-08
-1.54633e-07
2.46412e-08
-1.59597e-07
2.30255e-08
-1.64172e-07
2.12592e-08
-1.68326e-07
1.93462e-08
-1.7203e-07
1.72914e-08
-1.75256e-07
1.51011e-08
-1.77979e-07
1.27829e-08
-1.80174e-07
1.03461e-08
-1.81821e-07
7.80156e-09
-1.829e-07
5.16192e-09
-1.83395e-07
2.44159e-09
-1.83295e-07
-3.43299e-10
-1.8259e-07
-3.17488e-09
-1.81277e-07
-6.03366e-09
-1.79356e-07
-8.89863e-09
-1.76829e-07
-1.17475e-08
-1.73707e-07
-1.45566e-08
-1.70004e-07
-1.73018e-08
-1.65737e-07
-1.99578e-08
-1.60932e-07
-2.24993e-08
-1.55617e-07
-2.49009e-08
-1.49826e-07
-2.71375e-08
-1.43598e-07
-2.91847e-08
-1.36976e-07
-3.10194e-08
-1.30008e-07
-3.26198e-08
-1.22746e-07
-3.39659e-08
-1.15244e-07
-3.50403e-08
-1.07561e-07
-3.58279e-08
-9.97584e-08
-3.63168e-08
-9.18974e-08
-3.64982e-08
-8.40417e-08
-3.63672e-08
-7.62553e-08
-3.59224e-08
-6.86015e-08
-3.51667e-08
-6.11422e-08
-3.4107e-08
-5.39373e-08
-3.27548e-08
-4.70436e-08
-3.11257e-08
-4.05138e-08
-2.92401e-08
-3.43958e-08
-2.71228e-08
-2.87318e-08
-2.48031e-08
-2.35572e-08
-2.23152e-08
-1.88998e-08
-1.96978e-08
-1.47793e-08
-1.69948e-08
-1.1206e-08
-1.4255e-08
-8.18034e-09
-1.15331e-08
-5.69208e-09
-8.88968e-09
-3.71988e-09
-6.39203e-09
-2.23067e-09
-4.11521e-09
-1.17918e-09
-2.14299e-09
-5.07654e-10
-5.69301e-10
-1.45425e-10
5.00533e-10
-8.69111e-12
9.47984e-10
6.30599e-10
-3.30722e-10
6.43039e-10
-1.31512e-09
2.751e-09
-2.94606e-09
5.40765e-09
-5.21315e-09
8.40535e-09
-8.10085e-09
1.15855e-08
-1.15879e-08
1.48215e-08
-1.56474e-08
1.80147e-08
-2.02474e-08
2.10906e-08
-2.53516e-08
2.39944e-08
-3.09202e-08
2.66874e-08
-3.69108e-08
2.9144e-08
-4.32795e-08
3.13485e-08
-4.9981e-08
3.32931e-08
-5.697e-08
3.49755e-08
-6.42009e-08
3.63978e-08
-7.16286e-08
3.75646e-08
-7.92088e-08
3.84824e-08
-8.68977e-08
3.91583e-08
-9.46525e-08
3.95998e-08
-1.02431e-07
3.98139e-08
-1.10193e-07
3.98071e-08
-1.17897e-07
3.95852e-08
-1.25504e-07
3.91529e-08
-1.32974e-07
3.85143e-08
-1.40269e-07
3.76725e-08
-1.47351e-07
3.66302e-08
-1.54182e-07
3.53896e-08
-1.60725e-07
3.39528e-08
-1.66943e-07
3.23217e-08
-1.72801e-07
3.0499e-08
-1.78263e-07
2.84875e-08
-1.83295e-07
2.62912e-08
-1.87864e-07
2.39152e-08
-1.91939e-07
2.13657e-08
-1.95488e-07
1.86507e-08
-1.98485e-07
1.57799e-08
-2.00904e-07
1.27648e-08
-2.02721e-07
9.61883e-09
-2.03917e-07
6.35772e-09
-2.04474e-07
2.99913e-09
-2.04381e-07
-4.37124e-10
-2.03626e-07
-3.92921e-09
-2.02207e-07
-7.45334e-09
-2.00121e-07
-1.09839e-08
-1.97375e-07
-1.44938e-08
-1.93977e-07
-1.79545e-08
-1.89943e-07
-2.13363e-08
-1.85292e-07
-2.46088e-08
-1.8005e-07
-2.77412e-08
-1.74248e-07
-3.07029e-08
-1.67922e-07
-3.34633e-08
-1.61114e-07
-3.5993e-08
-1.53869e-07
-3.82637e-08
-1.4624e-07
-4.0249e-08
-1.38281e-07
-4.19249e-08
-1.30052e-07
-4.32698e-08
-1.21614e-07
-4.42655e-08
-1.13034e-07
-4.48973e-08
-1.04377e-07
-4.51546e-08
-9.57134e-08
-4.5031e-08
-8.71111e-08
-4.45247e-08
-7.86388e-08
-4.36389e-08
-7.03637e-08
-4.2382e-08
-6.2351e-08
-4.07675e-08
-5.46623e-08
-3.88143e-08
-4.73556e-08
-3.65468e-08
-4.04834e-08
-3.39949e-08
-3.40924e-08
-3.11941e-08
-2.82223e-08
-2.81853e-08
-2.29048e-08
-2.50153e-08
-1.8163e-08
-2.17365e-08
-1.40106e-08
-1.84074e-08
-1.0451e-08
-1.50928e-08
-7.47681e-09
-1.18639e-08
-5.06934e-09
-8.7995e-09
-3.1983e-09
-5.98626e-09
-1.82148e-09
-3.5198e-09
-8.84769e-10
-1.50601e-09
-3.22221e-10
-6.20148e-11
-5.65516e-11
6.82315e-10
5.74048e-10
-4.03846e-10
1.04688e-09
-1.58377e-09
3.93093e-09
-3.51168e-09
7.33556e-09
-6.15936e-09
1.1053e-08
-9.49639e-09
1.49225e-08
-1.34893e-08
1.88143e-08
-1.81011e-08
2.26266e-08
-2.32918e-08
2.62813e-08
-2.90185e-08
2.9721e-08
-3.52358e-08
3.29047e-08
-4.18969e-08
3.58051e-08
-4.89538e-08
3.84054e-08
-5.63578e-08
4.06972e-08
-6.40604e-08
4.26781e-08
-7.20132e-08
4.43505e-08
-8.01681e-08
4.57196e-08
-8.84782e-08
4.67924e-08
-9.68969e-08
4.7577e-08
-1.05379e-07
4.80817e-08
-1.13879e-07
4.83143e-08
-1.22354e-07
4.82821e-08
-1.30761e-07
4.79917e-08
-1.39056e-07
4.74484e-08
-1.47199e-07
4.66568e-08
-1.55147e-07
4.56208e-08
-1.6286e-07
4.43434e-08
-1.70298e-07
4.28273e-08
-1.7742e-07
4.10751e-08
-1.84188e-07
3.90895e-08
-1.90563e-07
3.68736e-08
-1.96506e-07
3.44314e-08
-2.01983e-07
3.17678e-08
-2.06957e-07
2.88891e-08
-2.11395e-07
2.58032e-08
-2.15264e-07
2.25199e-08
-2.18534e-07
1.90508e-08
-2.2118e-07
1.54099e-08
-2.23175e-07
1.16138e-08
-2.24498e-07
7.68094e-09
-2.25131e-07
3.63271e-09
-2.25061e-07
-5.07259e-10
-2.24278e-07
-4.71293e-09
-2.22775e-07
-8.956e-09
-2.20553e-07
-1.32061e-08
-2.17616e-07
-1.74309e-08
-2.13974e-07
-2.15966e-08
-2.09642e-07
-2.5668e-08
-2.04641e-07
-2.96092e-08
-1.98999e-07
-3.33836e-08
-1.92747e-07
-3.69548e-08
-1.85924e-07
-4.02868e-08
-1.78572e-07
-4.33444e-08
-1.70742e-07
-4.60941e-08
-1.62486e-07
-4.85047e-08
-1.53864e-07
-5.05472e-08
-1.44938e-07
-5.21961e-08
-1.35774e-07
-5.34294e-08
-1.26441e-07
-5.42297e-08
-1.17012e-07
-5.45837e-08
-1.07559e-07
-5.44838e-08
-9.81564e-08
-5.39275e-08
-8.88772e-08
-5.29182e-08
-7.97939e-08
-5.14653e-08
-7.09768e-08
-4.95847e-08
-6.24929e-08
-4.72983e-08
-5.44049e-08
-4.46347e-08
-4.67707e-08
-4.16292e-08
-3.96415e-08
-3.83232e-08
-3.30617e-08
-3.47651e-08
-2.70674e-08
-3.10096e-08
-2.16859e-08
-2.71181e-08
-1.69345e-08
-2.31588e-08
-1.28204e-08
-1.92068e-08
-9.33975e-09
-1.53445e-08
-6.47739e-09
-1.16619e-08
-4.20659e-09
-8.25706e-09
-2.489e-09
-5.23739e-09
-1.27491e-09
-2.7201e-09
-5.03733e-10
-8.33193e-10
-1.04985e-10
2.83566e-10
4.69063e-10
-4.75088e-10
1.52197e-09
-1.84727e-09
5.30311e-09
-4.06886e-09
9.55715e-09
-7.09442e-09
1.40786e-08
-1.08787e-08
1.87068e-08
-1.53757e-08
2.33114e-08
-2.05382e-08
2.7789e-08
-2.63173e-08
3.20604e-08
-3.26631e-08
3.60668e-08
-3.95245e-08
3.97661e-08
-4.68495e-08
4.31302e-08
-5.45861e-08
4.6142e-08
-6.2682e-08
4.87931e-08
-7.10856e-08
5.10816e-08
-7.97453e-08
5.30103e-08
-8.86108e-08
5.45851e-08
-9.76323e-08
5.58139e-08
-1.06761e-07
5.67057e-08
-1.15949e-07
5.72696e-08
-1.25149e-07
5.75143e-08
-1.34315e-07
5.74481e-08
-1.43401e-07
5.7078e-08
-1.52363e-07
5.64101e-08
-1.61156e-07
5.54496e-08
-1.69736e-07
5.42009e-08
-1.7806e-07
5.26675e-08
-1.86085e-07
5.08527e-08
-1.9377e-07
4.87595e-08
-2.01072e-07
4.63914e-08
-2.0795e-07
4.37523e-08
-2.14366e-07
4.08469e-08
-2.2028e-07
3.76814e-08
-2.25654e-07
3.42634e-08
-2.30453e-07
3.06024e-08
-2.34643e-07
2.671e-08
-2.38193e-07
2.26003e-08
-2.41072e-07
1.82898e-08
-2.43256e-07
1.37977e-08
-2.44722e-07
9.14625e-09
-2.45449e-07
4.36017e-09
-2.45424e-07
-5.32832e-10
-2.44634e-07
-5.50233e-09
-2.43075e-07
-1.05153e-08
-2.40745e-07
-1.55364e-08
-2.37648e-07
-2.05279e-08
-2.33794e-07
-2.54506e-08
-2.29198e-07
-3.02634e-08
-2.23883e-07
-3.49246e-08
-2.17875e-07
-3.93916e-08
-2.11208e-07
-4.36219e-08
-2.03921e-07
-4.75735e-08
-1.9606e-07
-5.12056e-08
-1.87675e-07
-5.44788e-08
-1.78823e-07
-5.73566e-08
-1.69565e-07
-5.98049e-08
-1.59967e-07
-6.17939e-08
-1.50099e-07
-6.32975e-08
-1.40034e-07
-6.42948e-08
-1.29848e-07
-6.47701e-08
-1.19618e-07
-6.47139e-08
-1.09423e-07
-6.41227e-08
-9.93408e-08
-6.3e-08
-8.94498e-08
-6.13563e-08
-7.98252e-08
-5.92093e-08
-7.05393e-08
-5.65842e-08
-6.16603e-08
-5.35137e-08
-5.32512e-08
-5.00383e-08
-4.53685e-08
-4.62059e-08
-3.80616e-08
-4.2072e-08
-3.13715e-08
-3.76997e-08
-2.53301e-08
-3.31595e-08
-1.99593e-08
-2.85296e-08
-1.52707e-08
-2.38955e-08
-1.12644e-08
-1.93507e-08
-7.9297e-09
-1.49966e-08
-5.24391e-09
-1.09429e-08
-3.17318e-09
-7.30812e-09
-1.67266e-09
-4.22062e-09
-6.87337e-10
-1.81852e-09
-1.53326e-10
-2.50445e-10
3.15737e-10
-5.44304e-10
2.06628e-09
-2.10456e-09
6.86337e-09
-4.61479e-09
1.20674e-08
-8.01304e-09
1.74768e-08
-1.22396e-08
2.29333e-08
-1.72359e-08
2.83077e-08
-2.2944e-08
3.34972e-08
-2.93064e-08
3.84228e-08
-3.62655e-08
4.30259e-08
-4.3764e-08
4.72646e-08
-5.17449e-08
5.11111e-08
-6.01517e-08
5.45488e-08
-6.89285e-08
5.757e-08
-7.80204e-08
6.01735e-08
-8.73731e-08
6.2363e-08
-9.69337e-08
6.41456e-08
-1.0665e-07
6.55301e-08
-1.16471e-07
6.65265e-08
-1.26346e-07
6.71449e-08
-1.36227e-07
6.7395e-08
-1.46064e-07
6.72856e-08
-1.55811e-07
6.68247e-08
-1.6542e-07
6.60191e-08
-1.74845e-07
6.48744e-08
-1.84039e-07
6.33956e-08
-1.92959e-07
6.15867e-08
-2.01558e-07
5.94515e-08
-2.09792e-07
5.69937e-08
-2.17618e-07
5.42173e-08
-2.24992e-07
5.1127e-08
-2.31874e-07
4.77286e-08
-2.38222e-07
4.40293e-08
-2.43997e-07
4.00381e-08
-2.49161e-07
3.57663e-08
-2.53678e-07
3.12275e-08
-2.57516e-07
2.64379e-08
-2.60643e-07
2.14168e-08
-2.63031e-07
1.61865e-08
-2.64658e-07
1.07724e-08
-2.65501e-07
5.2031e-09
-2.65544e-07
-4.89552e-10
-2.64776e-07
-6.27065e-09
-2.63189e-07
-1.21023e-08
-2.60781e-07
-1.7944e-08
-2.57556e-07
-2.37526e-08
-2.53524e-07
-2.9483e-08
-2.48699e-07
-3.50883e-08
-2.43103e-07
-4.05206e-08
-2.36764e-07
-4.57309e-08
-2.29715e-07
-5.06706e-08
-2.21997e-07
-5.52912e-08
-2.13657e-07
-5.95457e-08
-2.04747e-07
-6.33889e-08
-1.95325e-07
-6.67783e-08
-1.85456e-07
-6.96746e-08
-1.75207e-07
-7.20427e-08
-1.64652e-07
-7.38525e-08
-1.53867e-07
-7.50791e-08
-1.42934e-07
-7.5704e-08
-1.31932e-07
-7.57152e-08
-1.20947e-07
-7.51083e-08
-1.1006e-07
-7.38863e-08
-9.93562e-08
-7.20604e-08
-8.89152e-08
-6.96503e-08
-7.88153e-08
-6.66841e-08
-6.91304e-08
-6.31987e-08
-5.9929e-08
-5.92397e-08
-5.12735e-08
-5.48614e-08
-4.32188e-08
-5.01268e-08
-3.58112e-08
-4.51072e-08
-2.90881e-08
-3.98826e-08
-2.30765e-08
-3.45412e-08
-1.77929e-08
-2.91792e-08
-1.32423e-08
-2.39013e-08
-9.41861e-09
-1.88203e-08
-6.30401e-09
-1.40575e-08
-3.86947e-09
-9.74266e-09
-2.07522e-09
-6.01486e-09
-8.71764e-10
-3.02198e-09
-2.01296e-10
-9.20913e-10
1.14441e-10
-6.11437e-10
2.67771e-09
-2.35503e-09
8.60696e-09
-5.14767e-09
1.486e-08
-8.91164e-09
2.12408e-08
-1.35731e-08
2.75948e-08
-1.90613e-08
3.37959e-08
-2.53077e-08
3.97435e-08
-3.22455e-08
4.53606e-08
-3.98096e-08
5.059e-08
-4.79364e-08
5.53913e-08
-5.65634e-08
5.97381e-08
-6.56298e-08
6.36151e-08
-7.50758e-08
6.7016e-08
-8.48432e-08
6.99409e-08
-9.48752e-08
7.2395e-08
-1.05116e-07
7.43864e-08
-1.15511e-07
7.59255e-08
-1.26008e-07
7.70233e-08
-1.36554e-07
7.7691e-08
-1.47098e-07
7.79393e-08
-1.57591e-07
7.77779e-08
-1.67982e-07
7.72155e-08
-1.78222e-07
7.62596e-08
-1.88264e-07
7.49163e-08
-1.98059e-07
7.31912e-08
-2.07562e-07
7.10887e-08
-2.16723e-07
6.86133e-08
-2.25499e-07
6.5769e-08
-2.33842e-07
6.25608e-08
-2.41709e-07
5.89939e-08
-2.49056e-07
5.50752e-08
-2.55839e-07
5.0813e-08
-2.62019e-07
4.62179e-08
-2.67555e-07
4.13026e-08
-2.72411e-07
3.60829e-08
-2.7655e-07
3.05774e-08
-2.79941e-07
2.48079e-08
-2.82554e-07
1.87997e-08
-2.84364e-07
1.25819e-08
-2.85347e-07
6.18665e-09
-2.85487e-07
-3.49848e-10
-2.8477e-07
-6.98816e-09
-2.83187e-07
-1.36855e-08
-2.80735e-07
-2.03959e-08
-2.77416e-07
-2.70708e-08
-2.7324e-07
-3.3659e-08
-2.68221e-07
-4.01076e-08
-2.6238e-07
-4.63622e-08
-2.55743e-07
-5.23674e-08
-2.48346e-07
-5.80677e-08
-2.40229e-07
-6.34083e-08
-2.31439e-07
-6.83355e-08
-2.2203e-07
-7.27976e-08
-2.12063e-07
-7.67459e-08
-2.01602e-07
-8.01354e-08
-1.90719e-07
-8.29256e-08
-1.7949e-07
-8.50812e-08
-1.67996e-07
-8.65734e-08
-1.5632e-07
-8.73801e-08
-1.44548e-07
-8.74868e-08
-1.3277e-07
-8.68871e-08
-1.21072e-07
-8.55837e-08
-1.09544e-07
-8.35881e-08
-9.82732e-08
-8.09215e-08
-8.73424e-08
-7.76149e-08
-7.6832e-08
-7.37091e-08
-6.68169e-08
-6.92548e-08
-5.73655e-08
-6.43128e-08
-4.85389e-08
-5.89534e-08
-4.03896e-08
-5.32565e-08
-3.29608e-08
-4.73114e-08
-2.62854e-08
-4.12166e-08
-2.03852e-08
-3.50793e-08
-1.5271e-08
-2.90155e-08
-1.09418e-08
-2.31496e-08
-7.38488e-09
-1.76144e-08
-4.57641e-09
-1.25511e-08
-2.48177e-09
-8.1095e-09
-1.05671e-09
-4.44703e-09
-2.48882e-10
-1.72874e-09
-1.34441e-10
-6.76466e-10
3.35418e-09
-2.59831e-09
1.05288e-08
-5.66627e-09
1.7928e-08
-9.78767e-09
2.53622e-08
-1.48751e-08
3.26823e-08
-2.08458e-08
3.97665e-08
-2.76206e-08
4.65183e-08
-3.51238e-08
5.28638e-08
-4.32827e-08
5.87488e-08
-5.20269e-08
6.41356e-08
-6.12888e-08
6.9e-08
-7.10027e-08
7.33291e-08
-8.11053e-08
7.71186e-08
-9.1535e-08
8.03706e-08
-1.02232e-07
8.30921e-08
-1.13139e-07
8.5293e-08
-1.24198e-07
8.6985e-08
-1.35356e-07
8.81807e-08
-1.46557e-07
8.88925e-08
-1.5775e-07
8.9132e-08
-1.68882e-07
8.89101e-08
-1.79903e-07
8.82361e-08
-1.90761e-07
8.71181e-08
-2.01408e-07
8.55631e-08
-2.11794e-07
8.35768e-08
-2.21869e-07
8.11644e-08
-2.31587e-07
7.83306e-08
-2.40898e-07
7.50804e-08
-2.49756e-07
7.1419e-08
-2.58115e-07
6.73527e-08
-2.65929e-07
6.28892e-08
-2.73154e-07
5.80379e-08
-2.79747e-07
5.28109e-08
-2.85667e-07
4.72226e-08
-2.90875e-07
4.12906e-08
-2.95333e-07
3.5036e-08
-2.99009e-07
2.84832e-08
-3.0187e-07
2.16606e-08
-3.03888e-07
1.46005e-08
-3.05041e-07
7.33925e-09
-3.05308e-07
-8.30329e-11
-3.04674e-07
-7.62222e-09
-3.03129e-07
-1.52305e-08
-3.00668e-07
-2.28566e-08
-2.97293e-07
-3.04461e-08
-2.9301e-07
-3.7942e-08
-2.87832e-07
-4.52848e-08
-2.81781e-07
-5.24135e-08
-2.74882e-07
-5.9266e-08
-2.6717e-07
-6.57801e-08
-2.58685e-07
-7.18937e-08
-2.49474e-07
-7.75462e-08
-2.39592e-07
-8.26792e-08
-2.29101e-07
-8.72372e-08
-2.18068e-07
-9.11688e-08
-2.06566e-07
-9.44276e-08
-1.94674e-07
-9.69731e-08
-1.82476e-07
-9.87715e-08
-1.70059e-07
-9.97966e-08
-1.57515e-07
-1.00031e-07
-1.44936e-07
-9.9466e-08
-1.32417e-07
-9.81032e-08
-1.20051e-07
-9.5954e-08
-1.07931e-07
-9.3041e-08
-9.61485e-08
-8.93976e-08
-8.47891e-08
-8.50684e-08
-7.39348e-08
-8.01091e-08
-6.36609e-08
-7.45867e-08
-5.40352e-08
-6.85791e-08
-4.5117e-08
-6.21747e-08
-3.6956e-08
-5.54724e-08
-2.95915e-08
-4.85811e-08
-2.30518e-08
-4.1619e-08
-1.73534e-08
-3.47139e-08
-1.25011e-08
-2.80019e-08
-8.48779e-09
-2.16277e-08
-5.29489e-09
-1.5744e-08
-2.89293e-09
-1.05115e-08
-1.24259e-09
-6.09737e-09
-2.96253e-10
-2.67508e-09
-4.30694e-10
-7.39381e-10
4.09356e-09
-2.83411e-09
1.26235e-08
-6.1697e-09
2.12636e-08
-1.06392e-08
2.98317e-08
-1.61423e-08
3.81853e-08
-2.25843e-08
4.62085e-08
-2.98759e-08
5.381e-08
-3.79326e-08
6.09205e-08
-4.66739e-08
6.74901e-08
-5.6023e-08
7.34847e-08
-6.59068e-08
7.88838e-08
-7.62551e-08
8.36774e-08
-8.70005e-08
8.7864e-08
-9.80785e-08
9.14485e-08
-1.09426e-07
9.44401e-08
-1.20984e-07
9.68507e-08
-1.32693e-07
9.8694e-08
-1.44497e-07
9.99841e-08
-1.56339e-07
1.00735e-07
-1.68166e-07
1.00959e-07
-1.79925e-07
1.00669e-07
-1.91563e-07
9.98739e-08
-2.03028e-07
9.85833e-08
-2.14269e-07
9.68044e-08
-2.25236e-07
9.45438e-08
-2.35879e-07
9.18069e-08
-2.46147e-07
8.8599e-08
-2.55992e-07
8.49254e-08
-2.65365e-07
8.07922e-08
-2.74219e-07
7.62062e-08