/*--------------------------------*- C++ -*----------------------------------*\
| =========                 |                                                 |
| \\      /  F ield         | OpenFOAM: The Open Source CFD Toolbox           |
|  \\    /   O peration     | Version:  2.1.1                                 |
|   \\  /    A nd           | Web:      www.OpenFOAM.org                      |
|    \\/     M anipulation  |                                                 |
\*---------------------------------------------------------------------------*/
FoamFile
{
    version     2.0;
    format      ascii;
    class       volVectorField;
    location    "1";
    object      U;
}
// * * * * * * * * * * * * * * * * * * * * * * * * * * * * * * * * * * * * * //

dimensions      [0 1 -1 0 0 0 0];

internalField   nonuniform List<vector> 
6561
(
(8.34979e-06 -8.33786e-06 0)
(3.30801e-05 -1.5586e-05 0)
(6.34318e-05 -1.44876e-05 0)
(8.28263e-05 -9.03222e-06 0)
(8.29643e-05 -1.82584e-06 0)
(6.106e-05 5.81821e-06 0)
(1.66397e-05 1.32401e-05 0)
(-4.95573e-05 2.01347e-05 0)
(-0.000136104 2.63709e-05 0)
(-0.000241214 3.19062e-05 0)
(-0.000362957 3.67469e-05 0)
(-0.00049937 4.09242e-05 0)
(-0.000648534 4.44816e-05 0)
(-0.000808616 4.74678e-05 0)
(-0.000977886 4.99321e-05 0)
(-0.00115473 5.19219e-05 0)
(-0.00133766 5.34812e-05 0)
(-0.00152528 5.46489e-05 0)
(-0.00171632 5.54589e-05 0)
(-0.00190956 5.59395e-05 0)
(-0.00210388 5.61131e-05 0)
(-0.00229823 5.59972e-05 0)
(-0.00249158 5.56038e-05 0)
(-0.00268294 5.49408e-05 0)
(-0.00287134 5.40119e-05 0)
(-0.00305584 5.28176e-05 0)
(-0.00323547 5.13558e-05 0)
(-0.00340929 4.96226e-05 0)
(-0.00357632 4.76128e-05 0)
(-0.0037356 4.5321e-05 0)
(-0.00388615 4.27419e-05 0)
(-0.00402697 3.98716e-05 0)
(-0.00415709 3.67076e-05 0)
(-0.0042755 3.32499e-05 0)
(-0.00438126 2.95013e-05 0)
(-0.00447341 2.54682e-05 0)
(-0.00455105 2.11608e-05 0)
(-0.00461331 1.65937e-05 0)
(-0.00465941 1.17861e-05 0)
(-0.00468862 6.76202e-06 0)
(-0.00470033 1.55044e-06 0)
(-0.00469401 -3.81467e-06 0)
(-0.00466928 -9.29435e-06 0)
(-0.00462589 -1.4845e-05 0)
(-0.00456373 -2.04185e-05 0)
(-0.00448288 -2.5963e-05 0)
(-0.00438356 -3.14232e-05 0)
(-0.00426621 -3.67409e-05 0)
(-0.00413145 -4.18562e-05 0)
(-0.00398007 -4.67081e-05 0)
(-0.00381309 -5.12356e-05 0)
(-0.0036317 -5.53786e-05 0)
(-0.00343729 -5.90791e-05 0)
(-0.00323143 -6.22825e-05 0)
(-0.00301583 -6.49382e-05 0)
(-0.00279238 -6.7001e-05 0)
(-0.0025631 -6.84322e-05 0)
(-0.00233009 -6.92003e-05 0)
(-0.00209557 -6.92818e-05 0)
(-0.00186179 -6.86619e-05 0)
(-0.00163105 -6.73349e-05 0)
(-0.00140564 -6.53047e-05 0)
(-0.00118782 -6.25846e-05 0)
(-0.000979775 -5.91975e-05 0)
(-0.00078362 -5.51759e-05 0)
(-0.000601327 -5.0561e-05 0)
(-0.000434714 -4.54032e-05 0)
(-0.000285414 -3.97613e-05 0)
(-0.000154841 -3.37021e-05 0)
(-4.41418e-05 -2.7304e-05 0)
(4.5786e-05 -2.06669e-05 0)
(0.000114401 -1.387e-05 0)
(0.000161571 -7.04832e-06 0)
(0.000187596 -3.58937e-07 0)
(0.000193367 5.98798e-06 0)
(0.000180542 1.16876e-05 0)
(0.000151826 1.6272e-05 0)
(0.00011134 1.90093e-05 0)
(6.5328e-05 1.87109e-05 0)
(2.42388e-05 1.36139e-05 0)
(3.29622e-06 3.31061e-06 0)
(1.5696e-05 -3.31306e-05 0)
(5.40159e-05 -5.37975e-05 0)
(8.93045e-05 -4.2088e-05 0)
(9.38692e-05 -1.20023e-05 0)
(5.20103e-05 2.71241e-05 0)
(-4.32609e-05 6.96544e-05 0)
(-0.000194306 0.000112256 0)
(-0.000400487 0.000153001 0)
(-0.000659237 0.000190825 0)
(-0.000966799 0.000225181 0)
(-0.00131876 0.000255843 0)
(-0.00171041 0.000282785 0)
(-0.00213695 0.0003061 0)
(-0.00259367 0.000325951 0)
(-0.00307601 0.000342537 0)
(-0.00357964 0.000356071 0)
(-0.00410045 0.000366766 0)
(-0.00463458 0.000374818 0)
(-0.00517839 0.000380406 0)
(-0.00572845 0.000383684 0)
(-0.0062815 0.000384781 0)
(-0.00683445 0.0003838 0)
(-0.0073843 0.000380816 0)
(-0.00792816 0.000375883 0)
(-0.0084632 0.000369033 0)
(-0.00898661 0.000360282 0)
(-0.00949562 0.000349632 0)
(-0.00998746 0.000337073 0)
(-0.0104594 0.000322594 0)
(-0.0109085 0.000306179 0)
(-0.0113322 0.000287818 0)
(-0.0117276 0.000267508 0)
(-0.012092 0.000245255 0)
(-0.0124227 0.000221082 0)
(-0.0127169 0.000195032 0)
(-0.0129722 0.000167166 0)
(-0.0131861 0.000137573 0)
(-0.0133563 0.000106364 0)
(-0.0134807 7.36823e-05 0)
(-0.0135575 3.96982e-05 0)
(-0.0135849 4.61223e-06 0)
(-0.0135618 -3.13457e-05 0)
(-0.0134872 -6.79165e-05 0)
(-0.0133605 -0.000104814 0)
(-0.0131816 -0.000141726 0)
(-0.0129509 -0.00017832 0)
(-0.0126689 -0.000214242 0)
(-0.0123372 -0.000249127 0)
(-0.0119574 -0.000282596 0)
(-0.0115318 -0.000314271 0)
(-0.0110633 -0.000343771 0)
(-0.0105552 -0.000370726 0)
(-0.0100114 -0.000394779 0)
(-0.00943612 -0.000415596 0)
(-0.00883411 -0.000432869 0)
(-0.00821051 -0.000446323 0)
(-0.00757078 -0.000455726 0)
(-0.00692067 -0.000460889 0)
(-0.00626615 -0.000461674 0)
(-0.00561333 -0.000457997 0)
(-0.0049684 -0.000449831 0)
(-0.00433752 -0.00043721 0)
(-0.00372679 -0.000420227 0)
(-0.00314209 -0.000399039 0)
(-0.00258906 -0.000373864 0)
(-0.002073 -0.000344979 0)
(-0.00159873 -0.000312727 0)
(-0.00117057 -0.000277508 0)
(-0.000792232 -0.00023979 0)
(-0.000466677 -0.000200111 0)
(-0.000196075 -0.000159105 0)
(1.8369e-05 -0.000117459 0)
(0.000176565 -7.60389e-05 0)
(0.000279711 -3.58839e-05 0)
(0.000330581 1.69574e-06 0)
(0.000333889 3.49781e-05 0)
(0.000296773 6.1631e-05 0)
(0.000229257 7.84568e-05 0)
(0.00014489 8.10527e-05 0)
(6.37195e-05 6.38491e-05 0)
(1.35014e-05 2.41593e-05 0)
(1.47883e-05 -6.382e-05 0)
(4.28021e-05 -8.92981e-05 0)
(4.94928e-05 -4.88072e-05 0)
(4.7734e-06 3.10209e-05 0)
(-0.000109334 0.000132285 0)
(-0.000301811 0.000242918 0)
(-0.000576165 0.000355033 0)
(-0.000931998 0.000463619 0)
(-0.00136617 0.000565615 0)
(-0.00187373 0.000659252 0)
(-0.00244862 0.000743621 0)
(-0.00308415 0.000818378 0)
(-0.00377338 0.000883551 0)
(-0.00450934 0.0009394 0)
(-0.00528518 0.00098632 0)
(-0.00609429 0.00102478 0)
(-0.00693032 0.00105526 0)
(-0.00778725 0.00107824 0)
(-0.00865931 0.00109415 0)
(-0.00954106 0.00110339 0)
(-0.0104273 0.00110628 0)
(-0.0113129 0.0011031 0)
(-0.0121931 0.00109405 0)
(-0.0130633 0.00107928 0)
(-0.0139187 0.00105888 0)
(-0.0147549 0.00103293 0)
(-0.0155673 0.00100144 0)
(-0.0163515 0.000964417 0)
(-0.0171031 0.000921846 0)
(-0.0178175 0.000873719 0)
(-0.0184904 0.000820035 0)
(-0.0191173 0.000760818 0)
(-0.019694 0.00069612 0)
(-0.0202162 0.000626039 0)
(-0.0206798 0.000550721 0)
(-0.0210807 0.000470372 0)
(-0.0214153 0.000385266 0)
(-0.02168 0.000295745 0)
(-0.0218717 0.000202229 0)
(-0.0219876 0.000105217 0)
(-0.0220252 5.28499e-06 0)
(-0.0219828 -9.69099e-05 0)
(-0.021859 -0.000200636 0)
(-0.021653 -0.000305087 0)
(-0.0213648 -0.000409396 0)
(-0.020995 -0.000512632 0)
(-0.0205449 -0.000613822 0)
(-0.0200167 -0.000711954 0)
(-0.0194133 -0.000805993 0)
(-0.0187382 -0.000894898 0)
(-0.0179961 -0.000977633 0)
(-0.0171921 -0.00105319 0)
(-0.0163322 -0.0011206 0)
(-0.0154231 -0.00117895 0)
(-0.0144722 -0.00122741 0)
(-0.0134874 -0.00126525 0)
(-0.0124772 -0.00129183 0)
(-0.0114503 -0.00130665 0)
(-0.0104161 -0.00130934 0)
(-0.00938389 -0.00129969 0)
(-0.0083632 -0.00127764 0)
(-0.00736351 -0.00124328 0)
(-0.00639416 -0.0011969 0)
(-0.00546417 -0.00113893 0)
(-0.00458219 -0.00106999 0)
(-0.00375629 -0.000990871 0)
(-0.00299386 -0.000902548 0)
(-0.00230144 -0.000806165 0)
(-0.00168463 -0.000703056 0)
(-0.00114788 -0.000594762 0)
(-0.000694354 -0.000483059 0)
(-0.000325726 -0.000369983 0)
(-4.19683e-05 -0.00025794 0)
(0.000158911 -0.000149794 0)
(0.000281203 -4.90394e-05 0)
(0.000331909 3.99657e-05 0)
(0.000321229 0.0001117 0)
(0.00026288 0.000159161 0)
(0.000174485 0.000173624 0)
(8.11833e-05 0.000145008 0)
(1.85623e-05 6.50317e-05 0)
(9.50913e-06 -8.38662e-05 0)
(1.28678e-05 -9.41919e-05 0)
(-3.0911e-05 -4.06029e-06 0)
(-0.000148454 0.000147501 0)
(-0.000356796 0.000334029 0)
(-0.00066518 0.000536763 0)
(-0.00107722 0.000742733 0)
(-0.00159232 0.000943271 0)
(-0.00220676 0.00113277 0)
(-0.00291468 0.00130779 0)
(-0.00370878 0.00146637 0)
(-0.00458092 0.00160761 0)
(-0.00552247 0.00173131 0)
(-0.00652468 0.00183773 0)
(-0.00757883 0.00192743 0)
(-0.00867642 0.00200113 0)
(-0.0098092 0.00205962 0)
(-0.0109692 0.00210369 0)
(-0.0121489 0.00213409 0)
(-0.013341 0.00215149 0)
(-0.0145384 0.00215648 0)
(-0.0157344 0.00214955 0)
(-0.0169224 0.00213106 0)
(-0.0180961 0.00210132 0)
(-0.0192491 0.00206051 0)
(-0.0203753 0.00200876 0)
(-0.0214686 0.00194615 0)
(-0.0225229 0.0018727 0)
(-0.0235323 0.00178844 0)
(-0.0244908 0.00169338 0)
(-0.0253924 0.00158757 0)
(-0.0262312 0.00147108 0)
(-0.0270017 0.00134407 0)
(-0.027698 0.00120676 0)
(-0.0283149 0.00105948 0)
(-0.0288471 0.000902667 0)
(-0.0292898 0.000736876 0)
(-0.0296384 0.000562801 0)
(-0.0298889 0.000381274 0)
(-0.0300377 0.000193272 0)
(-0.0300818 -7.9998e-08 0)
(-0.030019 -0.000197513 0)
(-0.0298475 -0.00039762 0)
(-0.0295667 -0.000598861 0)
(-0.0291766 -0.00079958 0)
(-0.0286781 -0.000998016 0)
(-0.0280732 -0.00119232 0)
(-0.0273647 -0.00138059 0)
(-0.0265565 -0.00156087 0)
(-0.0256537 -0.00173122 0)
(-0.024662 -0.00188968 0)
(-0.0235885 -0.00203436 0)
(-0.0224411 -0.00216347 0)
(-0.0212284 -0.0022753 0)
(-0.0199603 -0.00236831 0)
(-0.0186469 -0.00244111 0)
(-0.0172994 -0.00249255 0)
(-0.0159292 -0.00252169 0)
(-0.0145484 -0.00252786 0)
(-0.0131693 -0.00251066 0)
(-0.0118041 -0.00246999 0)
(-0.0104652 -0.00240605 0)
(-0.00916464 -0.00231939 0)
(-0.00791424 -0.00221084 0)
(-0.00672518 -0.00208161 0)
(-0.00560792 -0.00193321 0)
(-0.00457201 -0.0017675 0)
(-0.00362594 -0.00158669 0)
(-0.00277689 -0.00139335 0)
(-0.00203059 -0.00119042 0)
(-0.00139106 -0.000981318 0)
(-0.000860413 -0.00076993 0)
(-0.000438603 -0.00056078 0)
(-0.00012311 -0.000359167 0)
(9.13704e-05 -0.000171392 0)
(0.00021332 -5.04874e-06 0)
(0.000254828 0.000130621 0)
(0.000231791 0.000224382 0)
(0.000164213 0.000262811 0)
(8.00823e-05 0.000230546 0)
(1.90503e-05 0.00011116 0)
(2.33291e-06 -8.46476e-05 0)
(-2.71106e-05 -5.17525e-05 0)
(-0.000135641 0.000111881 0)
(-0.00034231 0.000356947 0)
(-0.000660871 0.000649354 0)
(-0.00109947 0.000964151 0)
(-0.00166088 0.00128346 0)
(-0.0023437 0.0015949 0)
(-0.00314341 0.00189012 0)
(-0.00405324 0.00216379 0)
(-0.00506482 0.00241268 0)
(-0.00616879 0.00263516 0)
(-0.00735517 0.00283063 0)
(-0.00861375 0.00299928 0)
(-0.00993427 0.00314174 0)
(-0.0113066 0.00325896 0)
(-0.012721 0.00335199 0)
(-0.0141677 0.00342197 0)
(-0.0156376 0.00346995 0)
(-0.0171218 0.00349693 0)
(-0.0186116 0.00350376 0)
(-0.0200987 0.00349117 0)
(-0.0215748 0.00345974 0)
(-0.0230322 0.00340992 0)
(-0.024463 0.00334203 0)
(-0.0258595 0.00325628 0)
(-0.0272142 0.00315282 0)
(-0.0285195 0.00303175 0)
(-0.029768 0.00289312 0)
(-0.0309523 0.00273703 0)
(-0.0320651 0.00256359 0)
(-0.0330994 0.002373 0)
(-0.0340479 0.00216556 0)
(-0.0349041 0.00194168 0)
(-0.0356612 0.00170194 0)
(-0.036313 0.00144709 0)
(-0.0368538 0.00117808 0)
(-0.0372781 0.000896056 0)
(-0.0375811 0.000602387 0)
(-0.0377586 0.000298668 0)
(-0.0378072 -1.32816e-05 0)
(-0.0377241 -0.00033142 0)
(-0.0375077 -0.000653491 0)
(-0.0371571 -0.000977041 0)
(-0.0366725 -0.00129943 0)
(-0.0360552 -0.00161788 0)
(-0.0353077 -0.00192946 0)
(-0.0344337 -0.00223116 0)
(-0.0334379 -0.00251993 0)
(-0.0323263 -0.00279267 0)
(-0.0311063 -0.00304636 0)
(-0.0297863 -0.00327803 0)
(-0.0283757 -0.00348485 0)
(-0.0268852 -0.00366416 0)
(-0.0253265 -0.00381355 0)
(-0.0237119 -0.00393088 0)
(-0.0220548 -0.00401433 0)
(-0.020369 -0.00406245 0)
(-0.018669 -0.00407419 0)
(-0.0169693 -0.00404894 0)
(-0.0152848 -0.00398656 0)
(-0.0136304 -0.00388739 0)
(-0.0120205 -0.0037523 0)
(-0.0104692 -0.00358263 0)
(-0.00898999 -0.0033803 0)
(-0.00759537 -0.00314771 0)
(-0.00629682 -0.00288785 0)
(-0.00510451 -0.00260423 0)
(-0.00402707 -0.00230095 0)
(-0.00307135 -0.00198271 0)
(-0.00224224 -0.00165489 0)
(-0.00154234 -0.00132363 0)
(-0.000971733 -0.000995979 0)
(-0.000527705 -0.000680055 0)
(-0.000204419 -0.000385328 0)
(7.41148e-06 -0.000122925 0)
(0.000120882 9.39898e-05 0)
(0.000153052 0.00024982 0)
(0.000125224 0.000326287 0)
(6.64623e-05 0.000302329 0)
(1.68338e-05 0.0001529 0)
(-5.54508e-06 -6.27005e-05 0)
(-7.20818e-05 4.68469e-05 0)
(-0.000254083 0.00031088 0)
(-0.000560631 0.000672477 0)
(-0.00100056 0.00109125 0)
(-0.00157985 0.00153688 0)
(-0.0022996 0.00198707 0)
(-0.00315701 0.00242594 0)
(-0.00414644 0.00284247 0)
(-0.00526005 0.00322936 0)
(-0.0064884 0.00358208 0)
(-0.00782101 0.00389811 0)
(-0.00924672 0.0041764 0)
(-0.0107541 0.00441695 0)
(-0.0123315 0.00462043 0)
(-0.0139675 0.00478794 0)
(-0.0156509 0.00492081 0)
(-0.0173707 0.00502045 0)
(-0.0191162 0.00508826 0)
(-0.020877 0.00512553 0)
(-0.0226431 0.00513341 0)
(-0.0244047 0.00511288 0)
(-0.0261522 0.00506472 0)
(-0.0278763 0.00498957 0)
(-0.0295679 0.00488789 0)
(-0.0312177 0.00476002 0)
(-0.032817 0.00460618 0)
(-0.0343568 0.00442656 0)
(-0.0358285 0.00422132 0)
(-0.0372233 0.00399062 0)
(-0.0385328 0.00373473 0)
(-0.0397486 0.00345398 0)
(-0.0408625 0.00314888 0)
(-0.0418668 0.0028201 0)
(-0.0427537 0.00246856 0)
(-0.0435162 0.00209539 0)
(-0.0441475 0.00170203 0)
(-0.0446415 0.00129018 0)
(-0.0449928 0.000861874 0)
(-0.0451966 0.000419437 0)
(-0.0452491 -3.44761e-05 0)
(-0.0451474 -0.000496905 0)
(-0.0448895 -0.000964595 0)
(-0.0444746 -0.00143401 0)
(-0.0439032 -0.00190138 0)
(-0.0431768 -0.00236271 0)
(-0.0422985 -0.00281383 0)
(-0.0412724 -0.00325045 0)
(-0.0401043 -0.00366822 0)
(-0.0388011 -0.00406276 0)
(-0.0373713 -0.00442977 0)
(-0.0358245 -0.00476504 0)
(-0.0341718 -0.00506457 0)
(-0.0324254 -0.0053246 0)
(-0.0305985 -0.00554171 0)
(-0.0287056 -0.00571289 0)
(-0.0267618 -0.00583555 0)
(-0.024783 -0.00590765 0)
(-0.0227857 -0.00592771 0)
(-0.0207868 -0.00589489 0)
(-0.0188031 -0.00580899 0)
(-0.0168518 -0.00567051 0)
(-0.0149494 -0.00548068 0)
(-0.0131121 -0.00524146 0)
(-0.0113553 -0.00495557 0)
(-0.00969347 -0.00462648 0)
(-0.00813978 -0.00425844 0)
(-0.00670594 -0.00385652 0)
(-0.00540193 -0.00342655 0)
(-0.00423572 -0.00297528 0)
(-0.00321305 -0.00251035 0)
(-0.00233715 -0.00204043 0)
(-0.00160844 -0.00157538 0)
(-0.00102432 -0.00112643 0)
(-0.000578867 -0.000706428 0)
(-0.00026252 -0.000330208 0)
(-6.18509e-05 -1.4952e-05 0)
(4.06124e-05 0.000219358 0)
(6.66433e-05 0.000349595 0)
(4.49272e-05 0.000349073 0)
(1.31484e-05 0.000185 0)
(-1.35434e-05 -1.65966e-05 0)
(-0.00011917 0.000206449 0)
(-0.000379521 0.000600241 0)
(-0.000792527 0.00110269 0)
(-0.00136112 0.00166859 0)
(-0.00208832 0.00226325 0)
(-0.00297285 0.00286062 0)
(-0.00401003 0.00344173 0)
(-0.00519269 0.00399314 0)
(-0.00651171 0.0045057 0)
(-0.0079565 0.00497358 0)
(-0.00951543 0.00539338 0)
(-0.0111763 0.00576357 0)
(-0.0129264 0.0060839 0)
(-0.0147531 0.00635504 0)
(-0.0166437 0.0065782 0)
(-0.0185858 0.00675496 0)
(-0.0205672 0.006887 0)
(-0.0225759 0.00697602 0)
(-0.0246002 0.00702362 0)
(-0.026629 0.00703122 0)
(-0.028651 0.00700007 0)
(-0.0306555 0.00693117 0)
(-0.0326318 0.00682533 0)
(-0.0345695 0.00668319 0)
(-0.0364583 0.0065052 0)
(-0.038288 0.00629172 0)
(-0.0400485 0.00604304 0)
(-0.04173 0.00575942 0)
(-0.0433226 0.00544118 0)
(-0.0448167 0.00508874 0)
(-0.0462029 0.00470264 0)
(-0.047472 0.00428364 0)
(-0.0486152 0.00383275 0)
(-0.049624 0.00335127 0)
(-0.0504904 0.00284083 0)
(-0.0512069 0.0023034 0)
(-0.0517669 0.00174138 0)
(-0.0521642 0.00115754 0)
(-0.0523937 0.000555059 0)
(-0.0524511 -6.24482e-05 0)
(-0.0523334 -0.00069098 0)
(-0.0520385 -0.00132615 0)
(-0.0515655 -0.0019632 0)
(-0.0509151 -0.00259707 0)
(-0.0500892 -0.00322242 0)
(-0.0490911 -0.00383369 0)
(-0.0479256 -0.00442515 0)
(-0.0465992 -0.004991 0)
(-0.0451197 -0.00552543 0)
(-0.0434964 -0.0060227 0)
(-0.0417403 -0.00647724 0)
(-0.0398634 -0.00688373 0)
(-0.0378796 -0.00723719 0)
(-0.0358035 -0.00753308 0)
(-0.0336511 -0.00776738 0)
(-0.0314392 -0.00793668 0)
(-0.0291857 -0.00803826 0)
(-0.0269089 -0.00807016 0)
(-0.0246273 -0.00803125 0)
(-0.0223601 -0.00792128 0)
(-0.0201261 -0.00774091 0)
(-0.0179438 -0.00749178 0)
(-0.0158313 -0.0071765 0)
(-0.0138058 -0.00679871 0)
(-0.0118836 -0.00636305 0)
(-0.0100794 -0.00587521 0)
(-0.00840639 -0.00534193 0)
(-0.0068759 -0.00477103 0)
(-0.00549702 -0.00417146 0)
(-0.00427645 -0.00355336 0)
(-0.00321816 -0.00292815 0)
(-0.00232317 -0.00230872 0)
(-0.00158926 -0.00170956 0)
(-0.00101079 -0.00114708 0)
(-0.000578395 -0.000639869 0)
(-0.000278828 -0.000209152 0)
(-9.47914e-05 0.00012078 0)
(-4.70956e-06 0.000322141 0)
(1.86341e-05 0.000363062 0)
(8.7247e-06 0.000204373 0)
(-2.14143e-05 5.4079e-05 0)
(-0.000166765 0.00042938 0)
(-0.000507768 0.000984054 0)
(-0.00103082 0.00165282 0)
(-0.00173242 0.00238704 0)
(-0.00261208 0.00314873 0)
(-0.00366564 0.00390884 0)
(-0.00488607 0.00464585 0)
(-0.00626436 0.00534424 0)
(-0.00778986 0.00599326 0)
(-0.00945068 0.00658589 0)
(-0.011234 0.00711796 0)
(-0.0131265 0.00758744 0)
(-0.0151145 0.00799386 0)
(-0.0171841 0.00833786 0)
(-0.0193218 0.00862076 0)
(-0.021514 0.00884434 0)
(-0.0237473 0.00901054 0)
(-0.0260088 0.00912137 0)
(-0.0282856 0.00917869 0)
(-0.0305653 0.00918421 0)
(-0.0328358 0.00913942 0)
(-0.035085 0.00904556 0)
(-0.0373011 0.00890363 0)
(-0.0394727 0.00871442 0)
(-0.0415882 0.00847853 0)
(-0.0436364 0.00819646 0)
(-0.0456062 0.00786863 0)
(-0.0474865 0.00749545 0)
(-0.0492665 0.00707741 0)
(-0.0509356 0.00661511 0)
(-0.0524834 0.00610937 0)
(-0.0538998 0.00556125 0)
(-0.0551751 0.00497214 0)
(-0.0563 0.0043438 0)
(-0.0572658 0.00367841 0)
(-0.0580644 0.00297861 0)
(-0.0586884 0.00224752 0)
(-0.0591313 0.00148876 0)
(-0.0593874 0.000706475 0)
(-0.0594522 -9.46673e-05 0)
(-0.0593224 -0.00090951 0)
(-0.0589958 -0.00173241 0)
(-0.0584716 -0.00255729 0)
(-0.0577505 -0.00337767 0)
(-0.0568345 -0.00418672 0)
(-0.0557274 -0.00497735 0)
(-0.0544345 -0.00574229 0)
(-0.0529628 -0.00647416 0)
(-0.0513207 -0.00716556 0)
(-0.0495186 -0.00780921 0)
(-0.0475682 -0.00839804 0)
(-0.0454828 -0.00892529 0)
(-0.0432772 -0.00938463 0)
(-0.0409676 -0.00977029 0)
(-0.0385713 -0.0100772 0)
(-0.0361067 -0.0103009 0)
(-0.0335931 -0.0104381 0)
(-0.0310504 -0.0104862 0)
(-0.0284992 -0.0104437 0)
(-0.02596 -0.0103104 0)
(-0.0234536 -0.010087 0)
(-0.0210004 -0.00977555 0)
(-0.0186201 -0.00937947 0)
(-0.0163317 -0.0089033 0)
(-0.014153 -0.00835297 0)
(-0.0121004 -0.0077357 0)
(-0.0101886 -0.00706005 0)
(-0.00843015 -0.00633595 0)
(-0.00683544 -0.00557474 0)
(-0.00541221 -0.00478921 0)
(-0.00416536 -0.0039937 0)
(-0.00309669 -0.00320425 0)
(-0.00220469 -0.00243876 0)
(-0.00148427 -0.00171724 0)
(-0.000926673 -0.00106209 0)
(-0.000519232 -0.000498515 0)
(-0.000245293 -5.49625e-05 0)
(-8.3995e-05 0.000236435 0)
(-1.03222e-05 0.000339239 0)
(3.99257e-06 0.000209274 0)
(-2.90551e-05 0.000149185 0)
(-0.000213987 0.000716381 0)
(-0.000636271 0.00146415 0)
(-0.00127085 0.00232558 0)
(-0.00210758 0.00324982 0)
(-0.0031421 0.0041966 0)
(-0.00436703 0.00513466 0)
(-0.00577266 0.00604051 0)
(-0.00734783 0.00689701 0)
(-0.00908014 0.0076921 0)
(-0.0109562 0.00841781 0)
(-0.0129621 0.00906928 0)
(-0.0150831 0.00964411 0)
(-0.0173047 0.0101417 0)
(-0.0196119 0.0105625 0)
(-0.0219903 0.0109081 0)
(-0.0244251 0.0111805 0)
(-0.0269022 0.0113818 0)
(-0.0294075 0.0115144 0)
(-0.0319273 0.0115802 0)
(-0.0344482 0.0115815 0)
(-0.0369569 0.0115198 0)
(-0.0394404 0.0113966 0)
(-0.041886 0.0112131 0)
(-0.0442811 0.0109703 0)
(-0.0466133 0.010669 0)
(-0.0488702 0.0103098 0)
(-0.0510398 0.00989317 0)
(-0.0531101 0.00941982 0)
(-0.0550693 0.00889038 0)
(-0.0569059 0.00830572 0)
(-0.0586087 0.00766692 0)
(-0.0601666 0.00697543 0)
(-0.0615693 0.00623305 0)
(-0.0628068 0.00544207 0)
(-0.0638695 0.00460529 0)
(-0.0647488 0.00372605 0)
(-0.0654367 0.0028083 0)
(-0.0659263 0.00185659 0)
(-0.0662116 0.000876115 0)
(-0.0662876 -0.000127332 0)
(-0.0661508 -0.00114733 0)
(-0.0657988 -0.0021769 0)
(-0.0652308 -0.00320851 0)
(-0.0644475 -0.00423416 0)
(-0.0634511 -0.00524545 0)
(-0.0622457 -0.00623364 0)
(-0.0608368 -0.00718978 0)
(-0.0592318 -0.0081048 0)
(-0.05744 -0.00896962 0)
(-0.0554721 -0.00977528 0)
(-0.0533409 -0.0105131 0)
(-0.0510605 -0.0111747 0)
(-0.0486467 -0.0117524 0)
(-0.0461167 -0.0122391 0)
(-0.0434893 -0.0126284 0)
(-0.0407841 -0.012915 0)
(-0.0380218 -0.0130946 0)
(-0.0352239 -0.0131642 0)
(-0.0324125 -0.0131217 0)
(-0.0296099 -0.0129669 0)
(-0.0268383 -0.0127006 0)
(-0.0241199 -0.0123254 0)
(-0.0214761 -0.0118453 0)
(-0.0189277 -0.0112659 0)
(-0.0164939 -0.0105944 0)
(-0.0141929 -0.00983968 0)
(-0.0120408 -0.00901224 0)
(-0.0100516 -0.0081242 0)
(-0.00823696 -0.00718941 0)
(-0.00660586 -0.00622344 0)
(-0.0051643 -0.00524365 0)
(-0.0039151 -0.00426936 0)
(-0.00285765 -0.00332194 0)
(-0.00198778 -0.00242503 0)
(-0.00129758 -0.00160485 0)
(-0.000775332 -0.000890475 0)
(-0.000405376 -0.00031433 0)
(-0.000167931 8.74647e-05 0)
(-4.06093e-05 0.000274526 0)
(-8.06566e-07 0.000198838 0)
(-3.64302e-05 0.000268283 0)
(-0.000260361 0.00106718 0)
(-0.000763486 0.00204084 0)
(-0.00150961 0.00312185 0)
(-0.0024819 0.00425825 0)
(-0.00367202 0.00540833 0)
(-0.0050691 0.00653942 0)
(-0.0066605 0.00762667 0)
(-0.00843269 0.00865177 0)
(-0.0103713 0.00960173 0)
(-0.0124615 0.0104679 0)
(-0.0146877 0.0112449 0)
(-0.0170343 0.0119301 0)
(-0.0194856 0.0125228 0)
(-0.0220256 0.0130235 0)
(-0.0246389 0.013434 0)
(-0.02731 0.0137563 0)
(-0.0300238 0.013993 0)
(-0.0327654 0.0141465 0)
(-0.0355201 0.0142194 0)
(-0.0382737 0.0142138 0)
(-0.0410119 0.0141317 0)
(-0.0437211 0.0139748 0)
(-0.0463874 0.0137444 0)
(-0.0489975 0.0134417 0)
(-0.0515379 0.0130677 0)
(-0.0539956 0.012623 0)
(-0.0563575 0.0121085 0)
(-0.0586108 0.011525 0)
(-0.0607429 0.0108733 0)
(-0.0627415 0.0101545 0)
(-0.0645946 0.00937016 0)
(-0.0662904 0.00852199 0)
(-0.0678177 0.00761232 0)
(-0.0691659 0.00664401 0)
(-0.0703248 0.00562051 0)
(-0.0712853 0.00454595 0)
(-0.0720389 0.00342516 0)
(-0.072578 0.00226368 0)
(-0.0728963 0.00106781 0)
(-0.0729885 -0.00015542 0)
(-0.0728508 -0.00139827 0)
(-0.0724807 -0.00265233 0)
(-0.0718771 -0.00390853 0)
(-0.0710407 -0.00515728 0)
(-0.0699739 -0.00638848 0)
(-0.0686806 -0.00759166 0)
(-0.0671669 -0.0087561 0)
(-0.0654404 -0.00987092 0)
(-0.0635106 -0.0109252 0)
(-0.0613891 -0.0119083 0)
(-0.059089 -0.0128097 0)
(-0.0566254 -0.0136195 0)
(-0.0540149 -0.0143284 0)
(-0.0512758 -0.0149277 0)
(-0.0484278 -0.0154099 0)
(-0.0454917 -0.0157685 0)
(-0.0424896 -0.0159983 0)
(-0.0394444 -0.0160955 0)
(-0.0363795 -0.0160579 0)
(-0.033319 -0.0158847 0)
(-0.0302866 -0.015577 0)
(-0.0273061 -0.0151378 0)
(-0.0244007 -0.0145718 0)
(-0.0215927 -0.0138856 0)
(-0.0189031 -0.0130878 0)
(-0.0163517 -0.0121889 0)
(-0.0139562 -0.0112014 0)
(-0.011732 -0.0101398 0)
(-0.00969246 -0.00902048 0)
(-0.00784774 -0.00786186 0)
(-0.00620519 -0.00668444 0)
(-0.00476883 -0.00551086 0)
(-0.00353924 -0.00436603 0)
(-0.00251335 -0.00327725 0)
(-0.0016844 -0.0022745 0)
(-0.00104188 -0.00139065 0)
(-0.000571367 -0.000661907 0)
(-0.000254407 -0.000128037 0)
(-7.14235e-05 0.000167166 0)
(-5.54594e-06 0.000172728 0)
(-4.35366e-05 0.000410796 0)
(-0.000305639 0.0014809 0)
(-0.000888482 0.00271338 0)
(-0.00174513 0.00404123 0)
(-0.00285224 0.0054122 0)
(-0.00419737 0.00678397 0)
(-0.00576608 0.00812314 0)
(-0.00754264 0.00940411 0)
(-0.00951099 0.0106079 0)
(-0.0116547 0.011721 0)
(-0.0139571 0.0127342 0)
(-0.0164013 0.0136422 0)
(-0.0189704 0.014442 0)
(-0.0216475 0.015133 0)
(-0.0244159 0.0157159 0)
(-0.0272591 0.0161926 0)
(-0.0301608 0.0165654 0)
(-0.033105 0.0168372 0)
(-0.0360761 0.0170107 0)
(-0.0390588 0.0170885 0)
(-0.0420378 0.0170733 0)
(-0.0449983 0.0169672 0)
(-0.0479257 0.0167721 0)
(-0.0508055 0.0164896 0)
(-0.0536234 0.0161209 0)
(-0.0563654 0.0156672 0)
(-0.0590175 0.0151294 0)
(-0.0615659 0.0145084 0)
(-0.063997 0.0138053 0)
(-0.0662975 0.0130212 0)
(-0.0684544 0.0121574 0)
(-0.0704548 0.0112158 0)
(-0.0722863 0.0101986 0)
(-0.0739372 0.00910861 0)
(-0.0753962 0.0079493 0)
(-0.0766524 0.00672485 0)
(-0.0776962 0.00544018 0)
(-0.0785185 0.00410106 0)
(-0.0791114 0.00271409 0)
(-0.079468 0.00128672 0)
(-0.0795828 -0.000172733 0)
(-0.0794514 -0.00165514 0)
(-0.0790712 -0.00315058 0)
(-0.078441 -0.00464841 0)
(-0.0775612 -0.00613732 0)
(-0.0764341 -0.00760548 0)
(-0.0750638 -0.00904058 0)
(-0.0734562 -0.01043 0)
(-0.0716194 -0.011761 0)
(-0.0695631 -0.0130209 0)
(-0.0672991 -0.0141969 0)
(-0.0648413 -0.0152768 0)
(-0.0622051 -0.0162488 0)
(-0.059408 -0.017102 0)
(-0.0564691 -0.0178263 0)
(-0.053409 -0.0184126 0)
(-0.0502498 -0.0188532 0)
(-0.0470146 -0.019142 0)
(-0.0437276 -0.0192743 0)
(-0.0404139 -0.0192472 0)
(-0.0370986 -0.0190599 0)
(-0.0338074 -0.0187136 0)
(-0.0305656 -0.0182114 0)
(-0.0273981 -0.0175588 0)
(-0.0243289 -0.0167635 0)
(-0.0213809 -0.0158354 0)
(-0.0185754 -0.0147867 0)
(-0.0159318 -0.0136319 0)
(-0.0134675 -0.0123879 0)
(-0.011197 -0.0110737 0)
(-0.00913226 -0.00971069 0)
(-0.00728212 -0.00832254 0)
(-0.00565199 -0.00693527 0)
(-0.00424383 -0.00557737 0)
(-0.00305594 -0.00427981 0)
(-0.00208288 -0.0030763 0)
(-0.00131557 -0.00200343 0)
(-0.000741012 -0.00110101 0)
(-0.000342172 -0.000412197 0)
(-0.00010232 1.6221e-05 0)
(-1.01674e-05 0.000130901 0)
(-5.03832e-05 0.000576077 0)
(-0.000349696 0.00195629 0)
(-0.0010107 0.00348038 0)
(-0.00197617 0.00508238 0)
(-0.00321642 0.00671045 0)
(-0.00471498 0.00832239 0)
(-0.00645377 0.00988469 0)
(-0.00841388 0.0113716 0)
(-0.0105766 0.0127639 0)
(-0.0129234 0.0140479 0)
(-0.0154356 0.0152145 0)
(-0.018095 0.0162582 0)
(-0.0208832 0.0171763 0)
(-0.0237824 0.0179683 0)
(-0.0267748 0.0186351 0)
(-0.029843 0.0191788 0)
(-0.03297 0.0196023 0)
(-0.0361391 0.0199084 0)
(-0.0393339 0.0201003 0)
(-0.0425383 0.0201811 0)
(-0.0457366 0.0201534 0)
(-0.0489131 0.0200196 0)
(-0.0520525 0.019782 0)
(-0.0551397 0.0194422 0)
(-0.0581598 0.0190017 0)
(-0.0610979 0.0184617 0)
(-0.0639394 0.0178235 0)
(-0.0666699 0.0170881 0)
(-0.0692752 0.0162567 0)
(-0.0717411 0.0153307 0)
(-0.0740539 0.0143118 0)
(-0.0762004 0.0132022 0)
(-0.0781673 0.0120046 0)
(-0.0799424 0.0107222 0)
(-0.0815136 0.00935927 0)
(-0.0828697 0.00792064 0)
(-0.0840003 0.00641212 0)
(-0.084896 0.00484043 0)
(-0.0855482 0.00321325 0)
(-0.0859497 0.00153925 0)
(-0.0860944 -0.000171943 0)
(-0.0859777 -0.00190975 0)
(-0.0855965 -0.00366271 0)
(-0.0849493 -0.00541851 0)
(-0.0840363 -0.00716411 0)
(-0.0828597 -0.00888582 0)
(-0.0814233 -0.0105694 0)
(-0.0797331 -0.0122004 0)
(-0.0777971 -0.013764 0)
(-0.0756252 -0.0152455 0)
(-0.0732296 -0.0166301 0)
(-0.0706242 -0.0179038 0)
(-0.0678252 -0.0190528 0)
(-0.0648505 -0.0200644 0)
(-0.06172 -0.0209267 0)
(-0.058455 -0.0216293 0)
(-0.0550788 -0.022163 0)
(-0.0516155 -0.0225205 0)
(-0.0480906 -0.0226963 0)
(-0.0445304 -0.022687 0)
(-0.0409618 -0.0224912 0)
(-0.0374118 -0.0221101 0)
(-0.0339075 -0.0215471 0)
(-0.0304756 -0.0208085 0)
(-0.0271418 -0.0199028 0)
(-0.0239309 -0.0188413 0)
(-0.020866 -0.017638 0)
(-0.0179684 -0.0163094 0)
(-0.0152573 -0.0148747 0)
(-0.012749 -0.0133557 0)
(-0.0104572 -0.0117767 0)
(-0.00839239 -0.0101647 0)
(-0.00656167 -0.0085491 0)
(-0.00496855 -0.00696202 0)
(-0.00361287 -0.00543814 0)
(-0.00249075 -0.00401486 0)
(-0.00159466 -0.00273244 0)
(-0.000913128 -0.00163419 0)
(-0.0004306 -0.000766464 0)
(-0.000133101 -0.000178793 0)
(-1.46546e-05 7.34564e-05 0)
(-5.69827e-05 0.000763455 0)
(-0.000392472 0.00249189 0)
(-0.0011298 0.00433997 0)
(-0.00220189 0.00624326 0)
(-0.00357295 0.00815096 0)
(-0.00522257 0.0100216 0)
(-0.00712902 0.011822 0)
(-0.0092702 0.0135269 0)
(-0.0116247 0.0151174 0)
(-0.0141718 0.01658 0)
(-0.0168909 0.0179059 0)
(-0.0197621 0.0190898 0)
(-0.0227659 0.0201294 0)
(-0.0258831 0.0210245 0)
(-0.0290952 0.0217765 0)
(-0.0323838 0.0223879 0)
(-0.0357313 0.0228616 0)
(-0.03912 0.0232011 0)
(-0.0425332 0.0234099 0)
(-0.0459539 0.0234912 0)
(-0.0493659 0.0234481 0)
(-0.0527529 0.0232832 0)
(-0.0560991 0.0229988 0)
(-0.0593888 0.0225969 0)
(-0.0626063 0.0220791 0)
(-0.0657363 0.0214468 0)
(-0.0687636 0.0207015 0)
(-0.0716731 0.0198442 0)
(-0.07445 0.0188765 0)
(-0.0770797 0.0178 0)
(-0.0795478 0.0166168 0)
(-0.0818403 0.0153293 0)
(-0.0839436 0.0139407 0)
(-0.0858447 0.0124549 0)
(-0.0875311 0.0108767 0)
(-0.088991 0.00921169 0)
(-0.0902134 0.00746657 0)
(-0.0911884 0.00564903 0)
(-0.0919068 0.00376788 0)
(-0.0923608 0.00183299 0)
(-0.0925441 -0.000144637 0)
(-0.0924513 -0.00215296 0)
(-0.0920791 -0.00417892 0)
(-0.0914254 -0.00620851 0)
(-0.0904902 -0.00822688 0)
(-0.0892752 -0.0102185 0)
(-0.0877841 -0.0121671 0)
(-0.0860227 -0.0140562 0)
(-0.0839988 -0.0158689 0)
(-0.0817223 -0.0175883 0)
(-0.0792054 -0.0191979 0)
(-0.0764624 -0.0206812 0)
(-0.0735097 -0.0220225 0)
(-0.0703656 -0.0232073 0)
(-0.0670507 -0.0242218 0)
(-0.063587 -0.0250538 0)
(-0.0599987 -0.0256929 0)
(-0.0563109 -0.0261302 0)
(-0.0525504 -0.0263594 0)
(-0.0487449 -0.0263761 0)
(-0.0449226 -0.0261786 0)
(-0.0411123 -0.0257679 0)
(-0.0373427 -0.0251477 0)
(-0.0336424 -0.0243246 0)
(-0.030039 -0.0233082 0)
(-0.0265593 -0.0221112 0)
(-0.0232283 -0.0207492 0)
(-0.0200695 -0.0192407 0)
(-0.0171038 -0.0176074 0)
(-0.0143499 -0.0158738 0)
(-0.0118231 -0.0140673 0)
(-0.00953599 -0.012218 0)
(-0.0074974 -0.0103591 0)
(-0.00571267 -0.00852611 0)
(-0.00418336 -0.00675754 0)
(-0.00290727 -0.00509453 0)
(-0.00187856 -0.00358097 0)
(-0.00108734 -0.00226363 0)
(-0.000519524 -0.00119198 0)
(-0.000163739 -0.000418169 0)
(-1.90179e-05 5.33807e-07 0)
(-6.33466e-05 0.000972249 0)
(-0.000433937 0.00308609 0)
(-0.00124556 0.00528997 0)
(-0.00242172 0.0075214 0)
(-0.00392076 0.00973108 0)
(-0.00571842 0.0118787 0)
(-0.00778943 0.0139323 0)
(-0.0101085 0.0158673 0)
(-0.0126515 0.0176654 0)
(-0.0153954 0.019314 0)
(-0.0183178 0.0208049 0)
(-0.0213971 0.0221332 0)
(-0.0246125 0.0232974 0)
(-0.0279436 0.0242976 0)
(-0.031371 0.0251358 0)
(-0.0348754 0.0258149 0)
(-0.0384384 0.0263385 0)
(-0.042042 0.0267103 0)
(-0.0456685 0.0269342 0)
(-0.0493006 0.0270138 0)
(-0.0529214 0.0269524 0)
(-0.0565143 0.0267529 0)
(-0.0600628 0.0264178 0)
(-0.0635506 0.0259493 0)
(-0.0669618 0.0253492 0)
(-0.0702805 0.0246191 0)
(-0.0734909 0.0237604 0)
(-0.0765774 0.0227746 0)
(-0.0795246 0.0216633 0)
(-0.0823175 0.0204285 0)
(-0.0849411 0.0190725 0)
(-0.087381 0.0175981 0)
(-0.0896229 0.0160091 0)
(-0.0916532 0.0143098 0)
(-0.093459 0.0125056 0)