/*--------------------------------*- C++ -*----------------------------------*\
| =========                 |                                                 |
| \\      /  F ield         | OpenFOAM: The Open Source CFD Toolbox           |
|  \\    /   O peration     | Version:  2.1.1                                 |
|   \\  /    A nd           | Web:      www.OpenFOAM.org                      |
|    \\/     M anipulation  |                                                 |
\*---------------------------------------------------------------------------*/
FoamFile
{
    version     2.0;
    format      ascii;
    class       surfaceScalarField;
    location    "1.5";
    object      phi;
}
// * * * * * * * * * * * * * * * * * * * * * * * * * * * * * * * * * * * * * //

dimensions      [0 3 -1 0 0 0 0];

internalField   nonuniform List<scalar> 
12960
(
5.36627e-11
-5.36688e-11
1.49435e-10
-9.57724e-11
2.28447e-10
-7.90115e-11
2.58334e-10
-2.98872e-11
2.24442e-10
3.38914e-11
1.21762e-10
1.0268e-10
-4.92777e-11
1.7104e-10
-2.85293e-10
2.36015e-10
-5.8132e-10
2.96027e-10
-9.31624e-10
3.50304e-10
-1.3302e-09
3.98575e-10
-1.77106e-09
4.40861e-10
-2.24842e-09
4.77359e-10
-2.75678e-09
5.08364e-10
-3.291e-09
5.34219e-10
-3.84628e-09
5.55281e-10
-4.41818e-09
5.71897e-10
-5.00257e-09
5.84393e-10
-5.59563e-09
5.93057e-10
-6.19376e-09
5.98136e-10
-6.7936e-09
5.99838e-10
-7.39193e-09
5.98323e-10
-7.98564e-09
5.93712e-10
-8.57173e-09
5.86088e-10
-9.14722e-09
5.75499e-10
-9.70919e-09
5.61966e-10
-1.02547e-08
5.45487e-10
-1.07807e-08
5.26046e-10
-1.12843e-08
5.03618e-10
-1.17625e-08
4.78174e-10
-1.22122e-08
4.49692e-10
-1.26304e-08
4.18161e-10
-1.3014e-08
3.83588e-10
-1.336e-08
3.46003e-10
-1.36654e-08
3.05466e-10
-1.39275e-08
2.62071e-10
-1.41434e-08
2.15949e-10
-1.43107e-08
1.67275e-10
-1.4427e-08
1.16267e-10
-1.44902e-08
6.31893e-11
-1.44985e-08
8.3546e-12
-1.44507e-08
-4.78783e-11
-1.43456e-08
-1.05104e-10
-1.41827e-08
-1.62873e-10
-1.3962e-08
-2.20697e-10
-1.36839e-08
-2.7805e-10
-1.33496e-08
-3.34378e-10
-1.29605e-08
-3.89101e-10
-1.25188e-08
-4.41625e-10
-1.20275e-08
-4.9135e-10
-1.14898e-08
-5.37676e-10
-1.09098e-08
-5.80015e-10
-1.0292e-08
-6.17805e-10
-9.64147e-09
-6.50513e-10
-8.96382e-09
-6.77652e-10
-8.26503e-09
-6.98787e-10
-7.55148e-09
-7.13547e-10
-6.82985e-09
-7.21633e-10
-6.10703e-09
-7.22824e-10
-5.39004e-09
-7.16986e-10
-4.68597e-09
-7.04075e-10
-4.00183e-09
-6.8414e-10
-3.3445e-09
-6.57329e-10
-2.72061e-09
-6.23884e-10
-2.13647e-09
-5.84145e-10
-1.59792e-09
-5.38548e-10
-1.1103e-09
-4.87624e-10
-6.78297e-10
-4.32e-10
-3.05902e-10
-3.72395e-10
3.74194e-12
-3.09644e-10
2.48523e-10
-2.44781e-10
4.27293e-10
-1.7877e-10
5.40299e-10
-1.13005e-10
5.89394e-10
-4.90951e-11
5.78475e-10
1.09193e-11
5.14201e-10
6.42742e-11
4.0705e-10
1.0715e-10
2.72948e-10
1.34102e-10
1.3584e-10
1.37108e-10
3.13829e-11
1.04457e-10
3.13829e-11
9.62724e-11
-1.49941e-10
2.22668e-10
-2.22168e-10
2.8549e-10
-1.41834e-10
2.27335e-10
2.82669e-11
1.55105e-11
2.45717e-10
-3.6475e-10
4.82941e-10
-9.16276e-10
7.22565e-10
-1.63405e-09
9.5379e-10
-2.50826e-09
1.17024e-09
-3.52629e-09
1.36833e-09
-4.67406e-09
1.54634e-09
-5.93689e-09
1.7037e-09
-7.30013e-09
1.84059e-09
-8.74945e-09
1.95769e-09
-1.02712e-08
2.05592e-09
-1.18522e-08
2.13633e-09
-1.34803e-08
2.2e-09
-1.51439e-08
2.24798e-09
-1.6832e-08
2.28122e-09
-1.85345e-08
2.30056e-09
-2.02414e-08
2.30672e-09
-2.19433e-08
2.30026e-09
-2.36312e-08
2.28162e-09
-2.52962e-08
2.25113e-09
-2.69297e-08
2.20898e-09
-2.8523e-08
2.15529e-09
-3.00677e-08
2.0901e-09
-3.1555e-08
2.01339e-09
-3.29765e-08
1.92513e-09
-3.43236e-08
1.82528e-09
-3.55877e-08
1.71382e-09
-3.67604e-08
1.59079e-09
-3.78331e-08
1.45627e-09
-3.87975e-08
1.31045e-09
-3.96457e-08
1.15363e-09
-4.03698e-08
9.86204e-10
-4.09626e-08
8.08745e-10
-4.14173e-08
6.21955e-10
-4.17277e-08
4.26703e-10
-4.18885e-08
2.24023e-10
-4.18953e-08
1.51186e-11
-4.17445e-08
-1.9864e-10
-4.14339e-08
-4.15718e-10
-4.09624e-08
-6.34428e-10
-4.03301e-08
-8.5294e-10
-3.95389e-08
-1.0693e-09
-3.85918e-08
-1.28146e-09
-3.74936e-08
-1.48729e-09
-3.62506e-08
-1.68459e-09
-3.48708e-08
-1.87117e-09
-3.33637e-08
-2.04484e-09
-3.17402e-08
-2.20346e-09
-3.0013e-08
-2.34499e-09
-2.8196e-08
-2.46749e-09
-2.63045e-08
-2.56921e-09
-2.43547e-08
-2.64857e-09
-2.2364e-08
-2.70424e-09
-2.03505e-08
-2.73516e-09
-1.83328e-08
-2.74053e-09
-1.63299e-08
-2.71989e-09
-1.43608e-08
-2.67311e-09
-1.24446e-08
-2.6004e-09
-1.05996e-08
-2.50232e-09
-8.84367e-09
-2.37981e-09
-7.19366e-09
-2.23415e-09
-5.66521e-09
-2.067e-09
-4.27245e-09
-1.88039e-09
-3.02774e-09
-1.67671e-09
-1.94138e-09
-1.45875e-09
-1.02129e-09
-1.22974e-09
-2.72705e-10
-9.93364e-10
3.02405e-10
-7.5388e-10
7.05727e-10
-5.16327e-10
9.43377e-10
-2.86746e-10
1.02688e-09
-7.25814e-11
9.74425e-10
1.16728e-10
8.12597e-10
2.68978e-10
5.78432e-10
3.68267e-10
3.21445e-10
3.94095e-10
1.03996e-10
3.21906e-10
1.35379e-10
8.0502e-11
-2.30443e-10
1.44138e-10
-2.85804e-10
8.60807e-11
-8.37763e-11
-1.59603e-10
2.7395e-10
-6.3283e-10
7.18943e-10
-1.35337e-09
1.20349e-09
-2.32609e-09
1.69528e-09
-3.54546e-09
2.17317e-09
-4.99899e-09
2.62376e-09
-6.66966e-09
3.03901e-09
-8.53781e-09
3.41449e-09
-1.05824e-08
3.74829e-09
-1.2782e-08
4.04016e-09
-1.51152e-08
4.2909e-09
-1.75613e-08
4.502e-09
-2.01002e-08
4.67528e-09
-2.2713e-08
4.81274e-09
-2.53813e-08
4.91631e-09
-2.80879e-08
4.98785e-09
-3.08164e-08
5.029e-09
-3.35508e-08
5.04117e-09
-3.62761e-08
5.02552e-09
-3.89774e-08
4.98297e-09
-4.16405e-08
4.91418e-09
-4.42511e-08
4.81962e-09
-4.67954e-08
4.69957e-09
-4.92595e-08
4.55418e-09
-5.16296e-08
4.38349e-09
-5.3892e-08
4.18753e-09
-5.6033e-08
3.9663e-09
-5.8039e-08
3.71986e-09
-5.98966e-08
3.44838e-09
-6.15925e-08
3.15218e-09
-6.31138e-08
2.83174e-09
-6.4448e-08
2.4878e-09
-6.55831e-08
2.12135e-09
-6.65081e-08
1.73368e-09
-6.72125e-08
1.32637e-09
-6.76872e-08
9.0138e-10
-6.79241e-08
4.60975e-10
-6.79168e-08
7.78923e-12
-6.76602e-08
-4.55208e-10
-6.71512e-08
-9.24704e-10
-6.63886e-08
-1.39708e-09
-6.53731e-08
-1.86843e-09
-6.41078e-08
-2.3346e-09
-6.2598e-08
-2.79122e-09
-6.08515e-08
-3.2338e-09
-5.88784e-08
-3.65771e-09
-5.66913e-08
-4.05832e-09
-5.43051e-08
-4.43104e-09
-5.17371e-08
-4.77138e-09
-4.90071e-08
-5.07505e-09
-4.61365e-08
-5.33803e-09
-4.31491e-08
-5.55663e-09
-4.00701e-08
-5.72759e-09
-3.69262e-08
-5.84814e-09
-3.37453e-08
-5.91605e-09
-3.05561e-08
-5.92972e-09
-2.73878e-08
-5.88819e-09
-2.42697e-08
-5.79121e-09
-2.12309e-08
-5.63928e-09
-1.82996e-08
-5.43362e-09
-1.55031e-08
-5.17625e-09
-1.28673e-08
-4.86995e-09
-1.0416e-08
-4.5183e-09
-8.17072e-09
-4.12567e-09
-6.15019e-09
-3.69725e-09
-4.3699e-09
-3.23905e-09
-2.8416e-09
-2.75803e-09
-1.57279e-09
-2.26218e-09
-5.6599e-10
-1.76068e-09
1.81899e-10
-1.26422e-09
6.80578e-10
-7.85425e-10
9.47439e-10
-3.39442e-10
1.00895e-09
5.52177e-11
9.022e-10
3.75727e-10
6.76655e-10
5.93812e-10
3.95565e-10
6.75185e-10
1.36878e-10
5.80594e-10
2.72256e-10
3.19115e-11
-2.62355e-10
-2.66065e-11
-2.27286e-10
-2.75111e-10
1.64728e-10
-7.78254e-10
7.77094e-10
-1.57578e-09
1.51647e-09
-2.68768e-09
2.31538e-09
-4.11862e-09
3.12622e-09
-5.86193e-09
3.91648e-09
-7.90283e-09
4.66466e-09
-1.0221e-08
5.35717e-09
-1.27926e-08
5.98607e-09
-1.55917e-08
6.54741e-09
-1.85915e-08
7.04e-09
-2.17651e-08
7.4645e-09
-2.50859e-08
7.82279e-09
-2.85281e-08
8.1174e-09
-3.20665e-08
8.35123e-09
-3.56774e-08
8.52721e-09
-3.93377e-08
8.64815e-09
-4.30254e-08
8.71662e-09
-4.6719e-08
8.73485e-09
-5.03982e-08
8.70471e-09
-5.40429e-08
8.62767e-09
-5.76336e-08
8.50487e-09
-6.11511e-08
8.3371e-09
-6.45764e-08
8.12491e-09
-6.78909e-08
7.86862e-09
-7.10758e-08
7.56842e-09
-7.41127e-08
7.22445e-09
-7.69833e-08
6.83686e-09
-7.96693e-08
6.4059e-09
-8.2153e-08
5.932e-09
-8.44166e-08
5.41585e-09
-8.64433e-08
4.85844e-09
-8.82167e-08
4.26118e-09
-8.97212e-08
3.62588e-09
-9.09424e-08
2.95486e-09
-9.1867e-08
2.25097e-09
-9.24832e-08
1.51762e-09
-9.2781e-08
7.58753e-10
-9.27522e-08
-2.10667e-11
-9.23906e-08
-8.16742e-10
-9.16927e-08
-1.62261e-09
-9.06573e-08
-2.43252e-09
-8.92859e-08
-3.23983e-09
-8.7583e-08
-4.03753e-09
-8.55559e-08
-4.81826e-09
-8.32153e-08
-5.57442e-09
-8.05747e-08
-6.2983e-09
-7.76509e-08
-6.98211e-09
-7.44638e-08
-7.61817e-09
-7.10362e-08
-8.19899e-09
-6.73938e-08
-8.71741e-09
-6.35651e-08
-9.16672e-09
-5.9581e-08
-9.54079e-09
-5.54744e-08
-9.8342e-09
-5.12802e-08
-1.00423e-08
-4.70347e-08
-1.01615e-08
-4.27752e-08
-1.01891e-08
-3.85398e-08
-1.01236e-08
-3.43665e-08
-9.96451e-09
-3.0293e-08
-9.71276e-09
-2.63562e-08
-9.37046e-09
-2.25914e-08
-8.94106e-09
-1.9032e-08
-8.4293e-09
-1.57091e-08
-7.84128e-09
-1.26503e-08
-7.18445e-09
-9.87989e-09
-6.46763e-09
-7.41781e-09
-5.70113e-09
-5.27908e-09
-4.89676e-09
-3.4732e-09
-4.06806e-09
-2.00334e-09
-3.23054e-09
-8.65541e-10
-2.40202e-09
-4.77262e-11
-1.60324e-09
4.71374e-10
-8.58542e-10
7.23412e-10
-1.9682e-10
7.518e-10
3.47339e-10
6.13106e-10
7.32507e-10
3.78528e-10
9.09762e-10
1.36092e-10
8.2303e-10
4.08348e-10
-3.2902e-11
-2.29453e-10
-2.50715e-10
-9.47321e-12
-7.36771e-10
6.50784e-10
-1.54695e-09
1.58728e-09
-2.71552e-09
2.68503e-09
-4.2589e-09
3.85876e-09
-6.17915e-09
5.04648e-09
-8.46719e-09
6.20452e-09
-1.11056e-08
7.30305e-09
-1.4071e-08
8.32254e-09
-1.73359e-08
9.25105e-09
-2.08707e-08
1.00821e-08
-2.4644e-08
1.08133e-08
-2.86243e-08
1.14448e-08
-3.27802e-08
1.19787e-08
-3.70809e-08
1.24181e-08
-4.14964e-08
1.27667e-08
-4.59976e-08
1.30285e-08
-5.05566e-08
1.32071e-08
-5.51462e-08
1.33063e-08
-5.97403e-08
1.3329e-08
-6.43135e-08
1.32778e-08
-6.88408e-08
1.3155e-08
-7.32981e-08
1.29621e-08
-7.76614e-08
1.27004e-08
-8.19072e-08
1.23707e-08
-8.60123e-08
1.19737e-08
-8.99534e-08
1.15096e-08
-9.37079e-08
1.09789e-08
-9.72531e-08
1.0382e-08
-1.00567e-07
9.71943e-09
-1.03627e-07
8.99203e-09
-1.06412e-07
8.20104e-09
-1.08902e-07
7.34814e-09
-1.11076e-07
6.43564e-09
-1.12917e-07
5.46645e-09
-1.14406e-07
4.44423e-09
-1.15528e-07
3.37339e-09
-1.1627e-07
2.25918e-09
-1.16619e-07
1.10766e-09
-1.16566e-07
-7.42752e-11
-1.16103e-07
-1.27891e-09
-1.15228e-07
-2.49773e-09
-1.13939e-07
-3.72149e-09
-1.12239e-07
-4.94031e-09
-1.10133e-07
-6.14371e-09
-1.0763e-07
-7.32076e-09
-1.04744e-07
-8.4602e-09
-1.01492e-07
-9.55057e-09
-9.78939e-08
-1.05804e-08
-9.39738e-08
-1.15383e-08
-8.97596e-08
-1.24132e-08
-8.52824e-08
-1.31946e-08
-8.05765e-08
-1.38726e-08
-7.56791e-08
-1.44382e-08
-7.06299e-08
-1.48834e-08
-6.54708e-08
-1.52014e-08
-6.02454e-08
-1.53869e-08
-5.49986e-08
-1.5436e-08
-4.97759e-08
-1.53463e-08
-4.4623e-08
-1.51174e-08
-3.95852e-08
-1.47506e-08
-3.47065e-08
-1.42491e-08
-3.00295e-08
-1.3618e-08
-2.55944e-08
-1.28645e-08
-2.1438e-08
-1.19976e-08
-1.75939e-08
-1.10285e-08
-1.40911e-08
-9.97049e-09
-1.09534e-08
-8.83884e-09
-8.19891e-09
-7.65121e-09
-5.83926e-09
-6.42772e-09
-3.87857e-09
-5.19123e-09
-2.31278e-09
-3.96781e-09
-1.12868e-09
-2.78734e-09
-3.02953e-10
-1.68427e-09
1.98891e-10
-6.98664e-10
4.23583e-10
1.22647e-10
4.31328e-10
7.24761e-10
2.973e-10
1.04379e-09
1.14166e-10
1.00616e-09
5.22514e-10
-1.05265e-10
-1.24188e-10
-5.03762e-10
3.89024e-10
-1.25746e-09
1.40448e-09
-2.40835e-09
2.73817e-09
-3.98131e-09
4.25799e-09
-5.98619e-09
5.86365e-09
-8.42023e-09
7.48051e-09
-1.12705e-08
9.05477e-09
-1.45161e-08
1.05487e-08
-1.81305e-08
1.19369e-08
-2.20828e-08
1.32034e-08
-2.63397e-08
1.4339e-08
-3.08663e-08
1.53399e-08
-3.5627e-08
1.62055e-08
-4.05863e-08
1.6938e-08
-4.57091e-08
1.75409e-08
-5.09612e-08
1.80188e-08
-5.6309e-08
1.83763e-08
-6.17202e-08
1.86183e-08
-6.71632e-08
1.87493e-08
-7.26074e-08
1.87732e-08
-7.8023e-08
1.86934e-08
-8.33807e-08
1.85127e-08
-8.8652e-08
1.82334e-08
-9.38087e-08
1.78571e-08
-9.8823e-08
1.73851e-08
-1.03668e-07
1.68182e-08
-1.08315e-07
1.61572e-08
-1.12739e-07
1.54027e-08
-1.16912e-07
1.45555e-08
-1.2081e-07
1.36167e-08
-1.24405e-07
1.25875e-08
-1.27674e-07
1.147e-08
-1.30593e-07
1.02667e-08
-1.33138e-07
8.98113e-09
-1.35289e-07
7.61744e-09
-1.37026e-07
6.18095e-09
-1.3833e-07
4.67797e-09
-1.39187e-07
3.1159e-09
-1.39583e-07
1.50327e-09
-1.39507e-07
-1.50267e-10
-1.38952e-07
-1.83396e-09
-1.37913e-07
-3.53601e-09
-1.36391e-07
-5.24364e-09
-1.34388e-07
-6.9432e-09
-1.31912e-07
-8.62027e-09
-1.28973e-07
-1.02598e-08
-1.25586e-07
-1.18465e-08
-1.21772e-07
-1.33645e-08
-1.17555e-07
-1.47982e-08
-1.12961e-07
-1.6132e-08
-1.08023e-07
-1.73509e-08
-1.02777e-07
-1.84405e-08
-9.72626e-08
-1.93873e-08
-9.15218e-08
-2.01789e-08
-8.56006e-08
-2.08047e-08
-7.95468e-08
-2.12552e-08
-7.34106e-08
-2.15232e-08
-6.72432e-08
-2.16033e-08
-6.10969e-08
-2.14926e-08
-5.50241e-08
-2.11902e-08
-4.90766e-08
-2.06981e-08
-4.33052e-08
-2.00206e-08
-3.77585e-08
-1.91647e-08
-3.24826e-08
-1.81404e-08
-2.75201e-08
-1.69601e-08
-2.29095e-08
-1.56391e-08
-1.86843e-08
-1.41957e-08
-1.48721e-08
-1.2651e-08
-1.14941e-08
-1.10292e-08
-8.56413e-09
-9.35768e-09
-6.08784e-09
-7.66752e-09
-4.06187e-09
-5.99377e-09
-2.47304e-09
-4.37616e-09
-1.29747e-09
-2.85984e-09
-4.99727e-10
-1.49641e-09
-3.1973e-11
-3.45107e-10
1.67066e-10
5.25723e-10
1.73326e-10
1.03753e-09
7.94618e-11
1.10003e-09
6.01976e-10
-1.80454e-10
5.62665e-11
-7.70929e-10
9.79498e-10
-1.80989e-09
2.44345e-09
-3.32287e-09
4.25114e-09
-5.32263e-09
6.25775e-09
-7.81013e-09
8.35114e-09
-1.07759e-08
1.04463e-08
-1.42018e-08
1.24806e-08
-1.80626e-08
1.44095e-08
-2.2328e-08
1.62023e-08
-2.69636e-08
1.7839e-08
-3.19326e-08
1.93081e-08
-3.71967e-08
2.0604e-08
-4.27168e-08
2.17256e-08
-4.84537e-08
2.26749e-08
-5.43687e-08
2.34559e-08
-6.04237e-08
2.40738e-08
-6.65814e-08
2.4534e-08
-7.28056e-08
2.48424e-08
-7.90606e-08
2.50044e-08
-8.53121e-08
2.50246e-08
-9.15261e-08
2.49074e-08
-9.76695e-08
2.46562e-08
-1.0371e-07
2.42738e-08
-1.09615e-07
2.37624e-08
-1.15354e-07
2.31237e-08
-1.20895e-07
2.23589e-08
-1.26207e-07
2.14691e-08
-1.31259e-07
2.04555e-08
-1.36023e-07
1.93192e-08
-1.40468e-07
1.80618e-08
-1.44566e-07
1.66854e-08
-1.48289e-07
1.51928e-08
-1.5161e-07
1.35878e-08
-1.54504e-07
1.1875e-08
-1.56947e-07
1.00604e-08
-1.58917e-07
8.15095e-09
-1.60394e-07
6.15527e-09
-1.61361e-07
4.08323e-09
-1.61804e-07
1.94612e-09
-1.61711e-07
-2.43281e-10
-1.61074e-07
-2.47084e-09
-1.59889e-07
-4.72108e-09
-1.58156e-07
-6.97728e-09
-1.55877e-07
-9.22162e-09
-1.53062e-07
-1.14353e-08
-1.49723e-07
-1.35989e-08
-1.45878e-07
-1.56922e-08
-1.41547e-07
-1.76949e-08
-1.36759e-07
-1.95867e-08
-1.31543e-07
-2.13475e-08
-1.25936e-07
-2.29577e-08
-1.19978e-07
-2.43987e-08
-1.13712e-07
-2.5653e-08
-1.07187e-07
-2.67048e-08
-1.00451e-07
-2.754e-08
-9.356e-08
-2.81465e-08
-8.65683e-08
-2.85149e-08
-7.95333e-08
-2.86383e-08
-7.25133e-08
-2.85126e-08
-6.55665e-08
-2.8137e-08
-5.87508e-08
-2.75138e-08
-5.21227e-08
-2.66486e-08
-4.57367e-08
-2.55507e-08
-3.96443e-08
-2.42327e-08
-3.38934e-08
-2.2711e-08
-2.85271e-08
-2.10054e-08
-2.35833e-08
-1.91396e-08
-1.90934e-08
-1.7141e-08
-1.50818e-08
-1.50408e-08
-1.15649e-08
-1.28745e-08
-8.55054e-09
-1.06819e-08
-6.03679e-09
-8.50752e-09
-4.01153e-09
-6.40143e-09
-2.45158e-09
-4.41979e-09
-1.32209e-09
-2.6259e-09
-5.75826e-10
-1.09138e-09
-1.52477e-10
1.02374e-10
2.21557e-11
8.62899e-10
3.73599e-11
1.08482e-09
6.39336e-10
-2.56042e-10
3.12308e-10
-1.04317e-09
1.76662e-09
-2.37652e-09
3.7768e-09
-4.26382e-09
6.13844e-09
-6.70411e-09
8.69805e-09
-9.68778e-09
1.13348e-08
-1.31972e-08
1.39557e-08
-1.72078e-08
1.64912e-08
-2.16892e-08
1.88909e-08
-2.66066e-08
2.11197e-08
-3.19219e-08
2.31543e-08
-3.75947e-08
2.49809e-08
-4.35833e-08
2.65926e-08
-4.98455e-08
2.79877e-08
-5.63386e-08
2.91681e-08
-6.30208e-08
3.01381e-08
-6.98506e-08
3.09035e-08
-7.67872e-08
3.14707e-08
-8.3791e-08
3.18462e-08
-9.08231e-08
3.20364e-08
-9.78453e-08
3.20468e-08
-1.0482e-07
3.18824e-08
-1.11712e-07
3.15475e-08
-1.18483e-07
3.10453e-08
-1.25099e-07
3.03786e-08
-1.31525e-07
2.95495e-08
-1.37726e-07
2.85597e-08
-1.43668e-07
2.74108e-08
-1.49316e-07
2.61044e-08
-1.54639e-07
2.46421e-08
-1.59604e-07
2.30264e-08
-1.64179e-07
2.126e-08
-1.68333e-07
1.93469e-08
-1.72037e-07
1.7292e-08
-1.75263e-07
1.51016e-08
-1.77986e-07
1.27833e-08
-1.80182e-07
1.03464e-08
-1.81828e-07
7.80169e-09
-1.82907e-07
5.16193e-09
-1.83402e-07
2.44147e-09
-1.83302e-07
-3.43542e-10
-1.82597e-07
-3.17525e-09
-1.81284e-07
-6.03415e-09
-1.79362e-07
-8.89925e-09
-1.76836e-07
-1.17482e-08
-1.73714e-07
-1.45575e-08
-1.7001e-07
-1.73027e-08
-1.65743e-07
-1.99588e-08
-1.60938e-07
-2.25004e-08
-1.55622e-07
-2.49021e-08
-1.49831e-07
-2.71388e-08
-1.43603e-07
-2.91861e-08
-1.3698e-07
-3.10208e-08
-1.30012e-07
-3.26212e-08
-1.2275e-07
-3.39674e-08
-1.15248e-07
-3.50418e-08
-1.07565e-07
-3.58294e-08
-9.97615e-08
-3.63182e-08
-9.19001e-08
-3.64996e-08
-8.40442e-08
-3.63686e-08
-7.62575e-08
-3.59237e-08
-6.86033e-08
-3.51679e-08
-6.11438e-08
-3.41082e-08
-5.39386e-08
-3.27559e-08
-4.70447e-08
-3.11267e-08
-4.05147e-08
-2.9241e-08
-3.43965e-08
-2.71236e-08
-2.87323e-08
-2.48038e-08
-2.35575e-08
-2.23157e-08
-1.89001e-08
-1.96983e-08
-1.47795e-08
-1.69951e-08
-1.12061e-08
-1.42553e-08
-8.18036e-09
-1.15333e-08
-5.69206e-09
-8.88973e-09
-3.71985e-09
-6.392e-09
-2.23062e-09
-4.11512e-09
-1.17914e-09
-2.14286e-09
-5.07621e-10
-5.69146e-10
-1.45406e-10
5.00684e-10
-8.68462e-12
9.48102e-10
6.30651e-10
-3.30734e-10
6.43042e-10
-1.31517e-09
2.75106e-09
-2.94618e-09
5.4078e-09
-5.21335e-09
8.40562e-09
-8.10117e-09
1.15859e-08
-1.15884e-08
1.4822e-08
-1.56481e-08
1.80154e-08
-2.02483e-08
2.10914e-08
-2.53527e-08
2.39953e-08
-3.09215e-08
2.66885e-08
-3.69124e-08
2.91452e-08
-4.32813e-08
3.13498e-08
-4.99832e-08
3.32945e-08
-5.69724e-08
3.4977e-08
-6.42036e-08
3.63993e-08
-7.16317e-08
3.75662e-08
-7.92121e-08
3.8484e-08
-8.69014e-08
3.91599e-08
-9.46565e-08
3.96014e-08
-1.02436e-07
3.98155e-08
-1.10198e-07
3.98088e-08
-1.17902e-07
3.95868e-08
-1.25509e-07
3.91545e-08
-1.3298e-07
3.85158e-08
-1.40275e-07
3.7674e-08
-1.47357e-07
3.66317e-08
-1.54189e-07
3.5391e-08
-1.60732e-07
3.39541e-08
-1.6695e-07
3.2323e-08
-1.72808e-07
3.05001e-08
-1.78271e-07
2.84886e-08
-1.83303e-07
2.62922e-08
-1.87872e-07
2.3916e-08
-1.91946e-07
2.13664e-08
-1.95496e-07
1.86513e-08
-1.98493e-07
1.57803e-08
-2.00912e-07
1.27651e-08
-2.02729e-07
9.61898e-09
-2.03925e-07
6.35771e-09
-2.04483e-07
2.99898e-09
-2.04389e-07
-4.37436e-10
-2.03634e-07
-3.92968e-09
-2.02214e-07
-7.45396e-09
-2.00129e-07
-1.09847e-08
-1.97382e-07
-1.44948e-08
-1.93984e-07
-1.79555e-08
-1.8995e-07
-2.13374e-08
-1.85298e-07
-2.46101e-08
-1.80056e-07
-2.77427e-08
-1.74254e-07
-3.07044e-08
-1.67928e-07
-3.34649e-08
-1.61119e-07
-3.59946e-08
-1.53875e-07
-3.82654e-08
-1.46245e-07
-4.02508e-08
-1.38286e-07
-4.19267e-08
-1.30056e-07
-4.32716e-08
-1.21618e-07
-4.42673e-08
-1.13037e-07
-4.48991e-08
-1.0438e-07
-4.51564e-08
-9.57162e-08
-4.50327e-08
-8.71136e-08
-4.45263e-08
-7.8641e-08
-4.36405e-08
-7.03656e-08
-4.23835e-08
-6.23526e-08
-4.07689e-08
-5.46637e-08
-3.88156e-08
-4.73567e-08
-3.6548e-08
-4.04843e-08
-3.3996e-08
-3.40931e-08
-3.1195e-08
-2.82228e-08
-2.8186e-08
-2.29052e-08
-2.50159e-08
-1.81633e-08
-2.1737e-08
-1.40108e-08
-1.84078e-08
-1.04511e-08
-1.5093e-08
-7.47686e-09
-1.1864e-08
-5.06935e-09
-8.79951e-09
-3.19828e-09
-5.98619e-09
-1.82146e-09
-3.51968e-09
-8.84747e-10
-1.50586e-09
-3.22207e-10
-6.18559e-11
-5.65466e-11
6.82442e-10
5.74105e-10
-4.03862e-10
1.0469e-09
-1.58384e-09
3.93104e-09
-3.51183e-09
7.33579e-09
-6.15962e-09
1.10534e-08
-9.49679e-09
1.4923e-08
-1.34898e-08
1.88151e-08
-1.81019e-08
2.26274e-08
-2.32928e-08
2.62823e-08
-2.90197e-08
2.97222e-08
-3.52373e-08
3.29061e-08
-4.18987e-08
3.58066e-08
-4.89559e-08
3.8407e-08
-5.63603e-08
4.06989e-08
-6.40632e-08
4.26799e-08
-7.20163e-08
4.43524e-08
-8.01716e-08
4.57215e-08
-8.8482e-08
4.67944e-08
-9.69011e-08
4.7579e-08
-1.05383e-07
4.80837e-08
-1.13884e-07
4.83163e-08
-1.2236e-07
4.82842e-08
-1.30766e-07
4.79937e-08
-1.39062e-07
4.74503e-08
-1.47205e-07
4.66587e-08
-1.55154e-07
4.56226e-08
-1.62867e-07
4.43451e-08
-1.70305e-07
4.2829e-08
-1.77428e-07
4.10767e-08
-1.84196e-07
3.9091e-08
-1.9057e-07
3.6875e-08
-1.96515e-07
3.44327e-08
-2.01991e-07
3.1769e-08
-2.06966e-07
2.88901e-08
-2.11403e-07
2.58041e-08
-2.15272e-07
2.25205e-08
-2.18543e-07
1.90513e-08
-2.21189e-07
1.54103e-08
-2.23183e-07
1.16139e-08
-2.24507e-07
7.68092e-09
-2.2514e-07
3.63251e-09
-2.2507e-07
-5.07646e-10
-2.24286e-07
-4.7135e-09
-2.22783e-07
-8.95676e-09
-2.20561e-07
-1.3207e-08
-2.17624e-07
-1.7432e-08
-2.13982e-07
-2.15978e-08
-2.0965e-07
-2.56694e-08
-2.04649e-07
-2.96108e-08
-1.99006e-07
-3.33854e-08
-1.92754e-07
-3.69567e-08
-1.8593e-07
-4.02887e-08
-1.78578e-07
-4.33464e-08
-1.70748e-07
-4.60962e-08
-1.62492e-07
-4.85068e-08
-1.53869e-07
-5.05494e-08
-1.44942e-07
-5.21983e-08
-1.35778e-07
-5.34317e-08
-1.26445e-07
-5.42319e-08
-1.17016e-07
-5.45859e-08
-1.07562e-07
-5.44859e-08
-9.81593e-08
-5.39295e-08
-8.88797e-08
-5.29201e-08
-7.97961e-08
-5.14671e-08
-7.09787e-08
-4.95864e-08
-6.24945e-08
-4.72998e-08
-5.44063e-08
-4.46362e-08
-4.67718e-08
-4.16304e-08
-3.96424e-08
-3.83243e-08
-3.30624e-08
-3.4766e-08
-2.7068e-08
-3.10104e-08
-2.16862e-08
-2.71187e-08
-1.69347e-08
-2.31593e-08
-1.28206e-08
-1.92072e-08
-9.33985e-09
-1.53447e-08
-6.47745e-09
-1.16619e-08
-4.20661e-09
-8.25703e-09
-2.489e-09
-5.23728e-09
-1.2749e-09
-2.71995e-09
-5.03725e-10
-8.33033e-10
-1.04981e-10
2.83698e-10
4.69123e-10
-4.75108e-10
1.52201e-09
-1.84735e-09
5.30328e-09
-4.06904e-09
9.55748e-09
-7.09472e-09
1.40791e-08
-1.08792e-08
1.87075e-08
-1.53764e-08
2.33123e-08
-2.05391e-08
2.77901e-08
-2.63185e-08
3.20618e-08
-3.26646e-08
3.60683e-08
-3.95262e-08
3.97677e-08
-4.68516e-08
4.3132e-08
-5.45885e-08
4.61439e-08
-6.26848e-08
4.87952e-08
-7.10887e-08
5.10838e-08
-7.97489e-08
5.30125e-08
-8.86147e-08
5.45874e-08
-9.76366e-08
5.58162e-08
-1.06766e-07
5.67081e-08
-1.15954e-07
5.7272e-08
-1.25154e-07
5.75168e-08
-1.34321e-07
5.74505e-08
-1.43407e-07
5.70803e-08
-1.52369e-07
5.64124e-08
-1.61163e-07
5.54519e-08
-1.69743e-07
5.42031e-08
-1.78068e-07
5.26696e-08
-1.86093e-07
5.08547e-08
-1.93778e-07
4.87614e-08
-2.0108e-07
4.63932e-08
-2.07959e-07
4.37539e-08
-2.14375e-07
4.08484e-08
-2.20289e-07
3.76828e-08
-2.25663e-07
3.42646e-08
-2.30462e-07
3.06034e-08
-2.34653e-07
2.67108e-08
-2.38202e-07
2.26009e-08
-2.41082e-07
1.82902e-08
-2.43266e-07
1.37979e-08
-2.44731e-07
9.14622e-09
-2.45459e-07
4.35991e-09
-2.45433e-07
-5.33302e-10
-2.44644e-07
-5.50302e-09
-2.43084e-07
-1.05162e-08
-2.40754e-07
-1.55375e-08
-2.37656e-07
-2.05292e-08
-2.33802e-07
-2.54521e-08
-2.29207e-07
-3.02651e-08
-2.23891e-07
-3.49265e-08
-2.17883e-07
-3.93936e-08
-2.11215e-07
-4.36241e-08
-2.03928e-07
-4.75758e-08
-1.96067e-07
-5.1208e-08
-1.87681e-07
-5.44813e-08
-1.78829e-07
-5.73591e-08
-1.69571e-07
-5.98075e-08
-1.59973e-07
-6.17965e-08
-1.50104e-07
-6.33001e-08
-1.40039e-07
-6.42974e-08
-1.29852e-07
-6.47727e-08
-1.19622e-07
-6.47164e-08
-1.09426e-07
-6.41251e-08
-9.93437e-08
-6.30023e-08
-8.94524e-08
-6.13585e-08
-7.98274e-08
-5.92113e-08
-7.05412e-08
-5.6586e-08
-6.1662e-08
-5.35154e-08
-5.32526e-08
-5.00399e-08
-4.53696e-08
-4.62073e-08
-3.80625e-08
-4.20732e-08
-3.13722e-08
-3.77007e-08
-2.53306e-08
-3.31603e-08
-1.99597e-08
-2.85302e-08
-1.52709e-08
-2.38959e-08
-1.12646e-08
-1.9351e-08
-7.9298e-09
-1.49967e-08
-5.24396e-09
-1.09429e-08
-3.1732e-09
-7.30805e-09
-1.67267e-09
-4.22049e-09
-6.87336e-10
-1.81836e-09
-1.53324e-10
-2.50314e-10
3.15799e-10
-5.44328e-10
2.06634e-09
-2.10465e-09
6.86361e-09
-4.615e-09
1.20678e-08
-8.0134e-09
1.74775e-08
-1.22401e-08
2.29342e-08
-1.72366e-08
2.83088e-08
-2.29451e-08
3.34985e-08
-2.93077e-08
3.84244e-08
-3.62671e-08
4.30277e-08
-4.37659e-08
4.72665e-08
-5.17472e-08
5.11132e-08
-6.01544e-08
5.45511e-08
-6.89316e-08
5.75724e-08
-7.80239e-08
6.01761e-08
-8.7377e-08
6.23657e-08
-9.6938e-08
6.41483e-08
-1.06655e-07
6.55329e-08
-1.16476e-07
6.65293e-08
-1.26352e-07
6.71477e-08
-1.36233e-07
6.73978e-08
-1.46071e-07
6.72884e-08
-1.55818e-07
6.68275e-08
-1.65427e-07
6.60218e-08
-1.74852e-07
6.48771e-08
-1.84047e-07
6.33982e-08
-1.92967e-07
6.15892e-08
-2.01566e-07
5.94538e-08
-2.09801e-07
5.69959e-08
-2.17627e-07
5.42194e-08
-2.25002e-07
5.11289e-08
-2.31884e-07
4.77303e-08
-2.38232e-07
4.40308e-08
-2.44007e-07
4.00395e-08
-2.49171e-07
3.57675e-08
-2.53688e-07
3.12284e-08
-2.57526e-07
2.64386e-08
-2.60653e-07
2.14173e-08
-2.63042e-07
1.61867e-08
-2.64668e-07
1.07723e-08
-2.65511e-07
5.2028e-09
-2.65554e-07
-4.9011e-10
-2.64786e-07
-6.27146e-09
-2.63199e-07
-1.21034e-08
-2.60791e-07
-1.79453e-08
-2.57566e-07
-2.37541e-08
-2.53533e-07
-2.94848e-08
-2.48708e-07
-3.50903e-08
-2.43112e-07
-4.05227e-08
-2.36772e-07
-4.57333e-08
-2.29723e-07
-5.06731e-08
-2.22005e-07
-5.52939e-08
-2.13664e-07
-5.95485e-08
-2.04754e-07
-6.33918e-08
-1.95332e-07
-6.67812e-08
-1.85462e-07
-6.96776e-08
-1.75212e-07
-7.20458e-08
-1.64657e-07
-7.38556e-08
-1.53872e-07
-7.50822e-08
-1.42938e-07
-7.5707e-08
-1.31936e-07
-7.57182e-08
-1.2095e-07
-7.51111e-08
-1.10064e-07
-7.3889e-08
-9.93591e-08
-7.20629e-08
-8.89178e-08
-6.96527e-08
-7.88175e-08
-6.66863e-08
-6.91322e-08
-6.32007e-08
-5.99306e-08
-5.92415e-08
-5.12748e-08
-5.4863e-08
-4.32198e-08
-5.01282e-08
-3.58121e-08
-4.51084e-08
-2.90888e-08
-3.98836e-08
-2.3077e-08
-3.45419e-08
-1.77932e-08
-2.91797e-08
-1.32426e-08
-2.39017e-08
-9.41877e-09
-1.88205e-08
-6.3041e-09
-1.40575e-08
-3.86951e-09
-9.74263e-09
-2.07524e-09
-6.01476e-09
-8.7177e-10
-3.02184e-09
-2.01296e-10
-9.20787e-10
1.14503e-10
-6.11465e-10
2.67781e-09
-2.35514e-09
8.60728e-09
-5.1479e-09
1.48606e-08
-8.91205e-09
2.12416e-08
-1.35738e-08
2.75959e-08
-1.90622e-08
3.37973e-08
-2.53088e-08
3.97452e-08
-3.2247e-08
4.53625e-08
-3.98114e-08
5.05921e-08
-4.79386e-08
5.53937e-08
-5.6566e-08
5.97407e-08
-6.56328e-08
6.36179e-08
-7.50792e-08
6.70189e-08
-8.48471e-08
6.99439e-08
-9.48794e-08
7.23981e-08
-1.05121e-07
7.43896e-08
-1.15516e-07
7.59287e-08
-1.26014e-07
7.70265e-08
-1.3656e-07
7.76943e-08
-1.47105e-07
7.79425e-08
-1.57598e-07
7.77812e-08
-1.67989e-07
7.72187e-08
-1.7823e-07
7.62627e-08
-1.88272e-07
7.49194e-08
-1.98068e-07
7.31941e-08
-2.0757e-07
7.10915e-08
-2.16733e-07
6.86159e-08
-2.25508e-07
6.57716e-08
-2.33852e-07
6.25631e-08
-2.41719e-07
5.89961e-08
-2.49066e-07
5.50771e-08
-2.5585e-07
5.08148e-08
-2.6203e-07
4.62194e-08
-2.67566e-07
4.13039e-08
-2.72422e-07
3.60839e-08
-2.76561e-07
3.05781e-08
-2.79952e-07
2.48083e-08
-2.82566e-07
1.87999e-08
-2.84375e-07
1.25818e-08
-2.85359e-07
6.18629e-09
-2.85498e-07
-3.50499e-10
-2.84781e-07
-6.9891e-09
-2.83197e-07
-1.36867e-08
-2.80745e-07
-2.03974e-08
-2.77427e-07
-2.70725e-08
-2.73251e-07
-3.3661e-08
-2.68231e-07
-4.01099e-08
-2.62389e-07
-4.63647e-08
-2.55752e-07
-5.237e-08
-2.48355e-07
-5.80706e-08
-2.40237e-07
-6.34114e-08
-2.31447e-07
-6.83387e-08
-2.22038e-07
-7.28009e-08
-2.1207e-07
-7.67493e-08
-2.01609e-07
-8.01389e-08
-1.90725e-07
-8.2929e-08
-1.79496e-07
-8.50847e-08
-1.68001e-07
-8.65769e-08
-1.56325e-07
-8.73835e-08
-1.44553e-07
-8.74901e-08
-1.32774e-07
-8.68904e-08
-1.21076e-07
-8.55868e-08
-1.09548e-07
-8.3591e-08
-9.8276e-08
-8.09243e-08
-8.73449e-08
-7.76175e-08
-7.68341e-08
-7.37114e-08
-6.68187e-08
-6.9257e-08
-5.7367e-08
-6.43147e-08
-4.85401e-08
-5.8955e-08
-4.03906e-08
-5.32579e-08
-3.29616e-08
-4.73126e-08
-2.6286e-08
-4.12176e-08
-2.03857e-08
-3.508e-08
-1.52714e-08
-2.9016e-08
-1.0942e-08
-2.31499e-08
-7.38501e-09
-1.76145e-08
-4.57648e-09
-1.25512e-08
-2.48181e-09
-8.10944e-09
-1.05673e-09
-4.44692e-09
-2.48885e-10
-1.72863e-09
-1.34382e-10
-6.76498e-10
3.3543e-09
-2.59843e-09
1.05292e-08
-5.66653e-09
1.79287e-08
-9.78813e-09
2.53632e-08
-1.48758e-08
3.26837e-08
-2.08468e-08
3.97682e-08
-2.76219e-08
4.65203e-08
-3.51255e-08
5.28661e-08
-4.32847e-08
5.87513e-08
-5.20293e-08
6.41383e-08
-6.12916e-08
6.9003e-08
-7.1006e-08
7.33323e-08
-8.11091e-08
7.71219e-08
-9.15392e-08
8.03741e-08
-1.02237e-07
8.30957e-08
-1.13144e-07
8.52966e-08
-1.24204e-07
8.69887e-08
-1.35362e-07
8.81844e-08
-1.46564e-07
8.88962e-08
-1.57757e-07
8.91358e-08
-1.6889e-07
8.89138e-08
-1.79911e-07
8.82398e-08
-1.9077e-07
8.71217e-08
-2.01417e-07
8.55665e-08
-2.11803e-07
8.35801e-08
-2.21879e-07
8.11676e-08
-2.31597e-07
7.83337e-08
-2.40908e-07
7.50833e-08
-2.49767e-07
7.14217e-08
-2.58126e-07
6.73552e-08
-2.6594e-07
6.28914e-08
-2.73165e-07
5.80399e-08
-2.79759e-07
5.28126e-08
-2.85679e-07
4.7224e-08
-2.90886e-07
4.12918e-08
-2.95345e-07
3.50368e-08
-2.99021e-07
2.84837e-08
-3.01881e-07
2.16608e-08
-3.039e-07
1.46004e-08
-3.05053e-07
7.33883e-09
-3.05319e-07
-8.37795e-11
-3.04685e-07
-7.62329e-09
-3.0314e-07
-1.52319e-08
-3.00679e-07
-2.28583e-08
-2.97304e-07
-3.04481e-08
-2.9302e-07
-3.79442e-08
-2.87843e-07
-4.52873e-08
-2.81791e-07
-5.24163e-08
-2.74892e-07
-5.92691e-08
-2.6718e-07
-6.57833e-08
-2.58694e-07
-7.18971e-08
-2.49483e-07
-7.75498e-08
-2.39601e-07
-8.26829e-08
-2.29109e-07
-8.7241e-08
-2.18075e-07
-9.11727e-08
-2.06573e-07
-9.44316e-08
-1.9468e-07
-9.69771e-08
-1.82482e-07
-9.87754e-08
-1.70065e-07
-9.98005e-08
-1.5752e-07
-1.00035e-07
-1.44941e-07
-9.94697e-08
-1.32421e-07
-9.81067e-08
-1.20054e-07
-9.59574e-08
-1.07934e-07
-9.30442e-08
-9.61512e-08
-8.94006e-08
-8.47915e-08
-8.50711e-08
-7.39369e-08
-8.01116e-08
-6.36626e-08
-7.4589e-08
-5.40366e-08
-6.8581e-08
-4.51181e-08
-6.21764e-08
-3.69569e-08
-5.54738e-08
-2.95923e-08
-4.85822e-08
-2.30524e-08
-4.16199e-08
-1.73538e-08
-3.47145e-08
-1.25014e-08
-2.80023e-08
-8.48796e-09
-2.16279e-08
-5.29499e-09
-1.57441e-08
-2.89298e-09
-1.05115e-08
-1.24261e-09
-6.09728e-09
-2.96257e-10
-2.67498e-09
-4.30639e-10
-7.39416e-10
4.09372e-09
-2.83425e-09
1.2624e-08
-6.17e-09
2.12644e-08
-1.06397e-08
2.9833e-08
-1.6143e-08
3.8187e-08
-2.25853e-08
4.62105e-08
-2.98774e-08
5.38123e-08
-3.79344e-08
6.09232e-08
-4.66761e-08
6.7493e-08
-5.60256e-08
7.34879e-08
-6.59099e-08
7.88872e-08
-7.62586e-08
8.3681e-08
-8.70046e-08
8.78679e-08
-9.8083e-08
9.14525e-08
-1.09431e-07
9.44441e-08
-1.2099e-07
9.68548e-08
-1.32699e-07
9.86982e-08
-1.44503e-07
9.99884e-08
-1.56346e-07
1.00739e-07
-1.68174e-07
1.00963e-07
-1.79933e-07
1.00673e-07
-1.91571e-07
9.9878e-08
-2.03037e-07
9.85873e-08
-2.14279e-07
9.68083e-08
-2.25246e-07
9.45475e-08
-2.35889e-07
9.18105e-08
-2.46158e-07
8.86024e-08
-2.56003e-07
8.49286e-08
-2.65376e-07
8.07952e-08
-2.7423e-07
7.62089e-08
-2.82517e-07