/*--------------------------------*- C++ -*----------------------------------*\
| =========                 |                                                 |
| \\      /  F ield         | OpenFOAM: The Open Source CFD Toolbox           |
|  \\    /   O peration     | Version:  2.1.1                                 |
|   \\  /    A nd           | Web:      www.OpenFOAM.org                      |
|    \\/     M anipulation  |                                                 |
\*---------------------------------------------------------------------------*/
FoamFile
{
    version     2.0;
    format      ascii;
    class       volVectorField;
    location    "1.5";
    object      U;
}
// * * * * * * * * * * * * * * * * * * * * * * * * * * * * * * * * * * * * * //

dimensions      [0 1 -1 0 0 0 0];

internalField   nonuniform List<vector> 
6561
(
(8.35174e-06 -8.33652e-06 0)
(3.30841e-05 -1.55858e-05 0)
(6.34365e-05 -1.44882e-05 0)
(8.28323e-05 -9.03283e-06 0)
(8.29713e-05 -1.82631e-06 0)
(6.10673e-05 5.81802e-06 0)
(1.66464e-05 1.32402e-05 0)
(-4.95522e-05 2.01351e-05 0)
(-0.000136101 2.63716e-05 0)
(-0.000241215 3.19072e-05 0)
(-0.000362962 3.6748e-05 0)
(-0.000499379 4.09255e-05 0)
(-0.000648549 4.44831e-05 0)
(-0.000808636 4.74695e-05 0)
(-0.000977913 4.99339e-05 0)
(-0.00115477 5.19238e-05 0)
(-0.0013377 5.34831e-05 0)
(-0.00152533 5.46509e-05 0)
(-0.00171637 5.5461e-05 0)
(-0.00190962 5.59416e-05 0)
(-0.00210395 5.61153e-05 0)
(-0.00229831 5.59993e-05 0)
(-0.00249166 5.5606e-05 0)
(-0.00268303 5.49429e-05 0)
(-0.00287144 5.4014e-05 0)
(-0.00305595 5.28197e-05 0)
(-0.00323559 5.13579e-05 0)
(-0.00340941 4.96245e-05 0)
(-0.00357645 4.76147e-05 0)
(-0.00373574 4.53227e-05 0)
(-0.00388629 4.27436e-05 0)
(-0.00402712 3.98732e-05 0)
(-0.00415724 3.67091e-05 0)
(-0.00427566 3.32512e-05 0)
(-0.00438142 2.95024e-05 0)
(-0.00447357 2.54691e-05 0)
(-0.00455121 2.11615e-05 0)
(-0.00461348 1.65942e-05 0)
(-0.00465958 1.17864e-05 0)
(-0.00468879 6.76206e-06 0)
(-0.0047005 1.55024e-06 0)
(-0.00469418 -3.81511e-06 0)
(-0.00466945 -9.29503e-06 0)
(-0.00462605 -1.48459e-05 0)
(-0.00456389 -2.04197e-05 0)
(-0.00448303 -2.59644e-05 0)
(-0.00438371 -3.14248e-05 0)
(-0.00426636 -3.67427e-05 0)
(-0.00413158 -4.18582e-05 0)
(-0.0039802 -4.67103e-05 0)
(-0.00381321 -5.1238e-05 0)
(-0.00363181 -5.53811e-05 0)
(-0.0034374 -5.90818e-05 0)
(-0.00323152 -6.22852e-05 0)
(-0.00301591 -6.49409e-05 0)
(-0.00279246 -6.70038e-05 0)
(-0.00256316 -6.8435e-05 0)
(-0.00233015 -6.9203e-05 0)
(-0.00209561 -6.92845e-05 0)
(-0.00186183 -6.86645e-05 0)
(-0.00163108 -6.73373e-05 0)
(-0.00140566 -6.53069e-05 0)
(-0.00118783 -6.25866e-05 0)
(-0.000979782 -5.91994e-05 0)
(-0.000783621 -5.51774e-05 0)
(-0.000601322 -5.05623e-05 0)
(-0.000434705 -4.54043e-05 0)
(-0.000285402 -3.97621e-05 0)
(-0.000154826 -3.37027e-05 0)
(-4.4125e-05 -2.73043e-05 0)
(4.58036e-05 -2.06668e-05 0)
(0.000114418 -1.38696e-05 0)
(0.000161588 -7.04776e-06 0)
(0.000187612 -3.58174e-07 0)
(0.000193381 5.98892e-06 0)
(0.000180553 1.16887e-05 0)
(0.000151834 1.62731e-05 0)
(0.000111345 1.90103e-05 0)
(6.53305e-05 1.87117e-05 0)
(2.42394e-05 1.36143e-05 0)
(3.29617e-06 3.31055e-06 0)
(1.56978e-05 -3.31297e-05 0)
(5.40209e-05 -5.3799e-05 0)
(8.93125e-05 -4.20905e-05 0)
(9.38796e-05 -1.20045e-05 0)
(5.20215e-05 2.7123e-05 0)
(-4.32508e-05 6.96549e-05 0)
(-0.000194299 0.000112258 0)
(-0.000400486 0.000153005 0)
(-0.000659244 0.000190831 0)
(-0.000966816 0.000225188 0)
(-0.00131879 0.000255852 0)
(-0.00171045 0.000282795 0)
(-0.00213701 0.000306111 0)
(-0.00259375 0.000325963 0)
(-0.00307611 0.00034255 0)
(-0.00357976 0.000356085 0)
(-0.00410059 0.00036678 0)
(-0.00463473 0.000374832 0)
(-0.00517857 0.00038042 0)
(-0.00572865 0.000383699 0)
(-0.00628172 0.000384797 0)
(-0.00683469 0.000383815 0)
(-0.00738457 0.000380831 0)
(-0.00792845 0.000375898 0)
(-0.00846351 0.000369048 0)
(-0.00898694 0.000360297 0)
(-0.00949597 0.000349646 0)
(-0.00998783 0.000337087 0)
(-0.0104598 0.000322607 0)
(-0.010909 0.000306191 0)
(-0.0113327 0.00028783 0)
(-0.0117281 0.000267518 0)
(-0.0120925 0.000245264 0)
(-0.0124232 0.000221091 0)
(-0.0127174 0.000195039 0)
(-0.0129727 0.000167172 0)
(-0.0131866 0.000137577 0)
(-0.0133568 0.000106367 0)
(-0.0134812 7.36836e-05 0)
(-0.013558 3.9698e-05 0)
(-0.0135854 4.61038e-06 0)
(-0.0135623 -3.13492e-05 0)
(-0.0134877 -6.79216e-05 0)
(-0.013361 -0.000104821 0)
(-0.0131821 -0.000141735 0)
(-0.0129513 -0.00017833 0)
(-0.0126694 -0.000214254 0)
(-0.0123376 -0.000249139 0)
(-0.0119578 -0.00028261 0)
(-0.0115322 -0.000314286 0)
(-0.0110637 -0.000343787 0)
(-0.0105556 -0.000370743 0)
(-0.0100117 -0.000394797 0)
(-0.0094364 -0.000415614 0)
(-0.00883437 -0.000432887 0)
(-0.00821074 -0.000446342 0)
(-0.00757098 -0.000455745 0)
(-0.00692085 -0.000460907 0)
(-0.0062663 -0.000461692 0)
(-0.00561346 -0.000458014 0)
(-0.0049685 -0.000449847 0)
(-0.0043376 -0.000437225 0)
(-0.00372685 -0.000420241 0)
(-0.00314213 -0.000399052 0)
(-0.00258909 -0.000373875 0)
(-0.002073 -0.000344989 0)
(-0.00159872 -0.000312735 0)
(-0.00117055 -0.000277514 0)
(-0.000792205 -0.000239794 0)
(-0.000466644 -0.000200114 0)
(-0.000196039 -0.000159106 0)
(1.84071e-05 -0.000117458 0)
(0.000176602 -7.60368e-05 0)
(0.000279746 -3.58806e-05 0)
(0.000330612 1.70008e-06 0)
(0.000333914 3.49832e-05 0)
(0.000296793 6.16364e-05 0)
(0.00022927 7.8462e-05 0)
(0.000144897 8.1057e-05 0)
(6.37222e-05 6.38518e-05 0)
(1.35018e-05 2.41598e-05 0)
(1.47896e-05 -6.38224e-05 0)
(4.28066e-05 -8.93034e-05 0)
(4.95004e-05 -4.88127e-05 0)
(4.78252e-06 3.10174e-05 0)
(-0.000109326 0.000132285 0)
(-0.000301807 0.000242922 0)
(-0.000576169 0.000355042 0)
(-0.000932013 0.000463633 0)
(-0.0013662 0.000565633 0)
(-0.00187378 0.000659275 0)
(-0.00244868 0.000743647 0)
(-0.00308424 0.000818408 0)
(-0.0037735 0.000883584 0)
(-0.00450949 0.000939436 0)
(-0.00528536 0.000986358 0)
(-0.0060945 0.00102482 0)
(-0.00693057 0.0010553 0)
(-0.00778752 0.00107828 0)
(-0.00865963 0.0010942 0)
(-0.0095414 0.00110343 0)
(-0.0104276 0.00110633 0)
(-0.0113133 0.00110314 0)
(-0.0121936 0.00109409 0)
(-0.0130638 0.00107932 0)
(-0.0139192 0.00105893 0)
(-0.0147555 0.00103297 0)
(-0.0155679 0.00100148 0)
(-0.0163522 0.000964455 0)
(-0.0171037 0.000921882 0)
(-0.0178182 0.000873753 0)
(-0.0184911 0.000820067 0)
(-0.0191181 0.000760847 0)
(-0.0196948 0.000696146 0)
(-0.020217 0.000626062 0)
(-0.0206806 0.00055074 0)
(-0.0210815 0.000470388 0)
(-0.0214161 0.000385277 0)
(-0.0216808 0.000295752 0)
(-0.0218725 0.000202232 0)
(-0.0219884 0.000105215 0)
(-0.0220261 5.27894e-06 0)
(-0.0219836 -9.69206e-05 0)
(-0.0218598 -0.000200651 0)
(-0.0216538 -0.000305107 0)
(-0.0213656 -0.00040942 0)
(-0.0209957 -0.000512661 0)
(-0.0205456 -0.000613855 0)
(-0.0200174 -0.000711991 0)
(-0.0194139 -0.000806033 0)
(-0.0187389 -0.000894941 0)
(-0.0179967 -0.000977679 0)
(-0.0171926 -0.00105324 0)
(-0.0163327 -0.00112065 0)
(-0.0154236 -0.001179 0)
(-0.0144726 -0.00122746 0)
(-0.0134878 -0.0012653 0)
(-0.0124775 -0.00129188 0)
(-0.0114506 -0.0013067 0)
(-0.0104164 -0.0013094 0)
(-0.00938411 -0.00129974 0)
(-0.00836339 -0.00127769 0)
(-0.00736366 -0.00124333 0)
(-0.00639427 -0.00119694 0)
(-0.00546426 -0.00113896 0)
(-0.00458225 -0.00107002 0)
(-0.00375632 -0.000990899 0)
(-0.00299387 -0.000902572 0)
(-0.00230144 -0.000806184 0)
(-0.00168461 -0.00070307 0)
(-0.00114785 -0.000594772 0)
(-0.000694312 -0.000483064 0)
(-0.00032568 -0.000369984 0)
(-4.19214e-05 -0.000257937 0)
(0.000158956 -0.000149788 0)
(0.000281244 -4.90298e-05 0)
(0.000331943 3.99774e-05 0)
(0.000321256 0.000111713 0)
(0.000262899 0.000159173 0)
(0.000174495 0.000173635 0)
(8.11877e-05 0.000145015 0)
(1.85631e-05 6.50341e-05 0)
(9.51013e-06 -8.38711e-05 0)
(1.28711e-05 -9.42004e-05 0)
(-3.09061e-05 -4.06755e-06 0)
(-0.00014845 0.000147498 0)
(-0.000356796 0.000334033 0)
(-0.000665189 0.000536775 0)
(-0.00107725 0.000742754 0)
(-0.00159236 0.0009433 0)
(-0.00220682 0.00113281 0)
(-0.00291476 0.00130783 0)
(-0.0037089 0.00146642 0)
(-0.00458107 0.00160767 0)
(-0.00552266 0.00173137 0)
(-0.00652491 0.0018378 0)
(-0.0075791 0.00192751 0)
(-0.00867674 0.00200121 0)
(-0.00980956 0.0020597 0)
(-0.0109697 0.00210378 0)
(-0.0121494 0.00213417 0)
(-0.0133415 0.00215158 0)
(-0.014539 0.00215657 0)
(-0.015735 0.00214963 0)
(-0.0169231 0.00213115 0)
(-0.0180968 0.0021014 0)
(-0.0192498 0.00206059 0)
(-0.0203761 0.00200884 0)
(-0.0214694 0.00194623 0)
(-0.0225238 0.00187278 0)
(-0.0235333 0.00178851 0)
(-0.0244917 0.00169345 0)
(-0.0253934 0.00158763 0)
(-0.0262323 0.00147113 0)
(-0.0270027 0.00134412 0)
(-0.0276991 0.0012068 0)
(-0.028316 0.00105952 0)
(-0.0288482 0.000902696 0)
(-0.0292909 0.000736898 0)
(-0.0296395 0.000562814 0)
(-0.02989 0.000381278 0)
(-0.0300388 0.000193268 0)
(-0.0300829 -9.28802e-08 0)
(-0.0300201 -0.000197535 0)
(-0.0298486 -0.000397651 0)
(-0.0295678 -0.000598901 0)
(-0.0291777 -0.000799628 0)
(-0.0286791 -0.000998072 0)
(-0.0280742 -0.00119239 0)
(-0.0273656 -0.00138066 0)
(-0.0265574 -0.00156095 0)
(-0.0256545 -0.0017313 0)
(-0.0246629 -0.00188977 0)
(-0.0235893 -0.00203446 0)
(-0.0224418 -0.00216357 0)
(-0.0212291 -0.0022754 0)
(-0.0199609 -0.00236841 0)
(-0.0186474 -0.00244122 0)
(-0.0172998 -0.00249266 0)
(-0.0159297 -0.0025218 0)
(-0.0145488 -0.00252796 0)
(-0.0131696 -0.00251076 0)
(-0.0118044 -0.00247008 0)
(-0.0104654 -0.00240614 0)
(-0.00916482 -0.00231947 0)
(-0.00791439 -0.00221092 0)
(-0.00672529 -0.00208168 0)
(-0.00560799 -0.00193327 0)
(-0.00457206 -0.00176755 0)
(-0.00362596 -0.00158673 0)
(-0.00277689 -0.00139338 0)
(-0.00203056 -0.00119044 0)
(-0.00139102 -0.000981331 0)
(-0.000860369 -0.000769935 0)
(-0.000438556 -0.000560777 0)
(-0.000123063 -0.000359158 0)
(9.1414e-05 -0.000171377 0)
(0.000213358 -5.02974e-06 0)
(0.000254858 0.000130642 0)
(0.000231813 0.000224403 0)
(0.000164226 0.000262829 0)
(8.00875e-05 0.000230559 0)
(1.90513e-05 0.000111165 0)
(2.33354e-06 -8.4654e-05 0)
(-2.71091e-05 -5.17622e-05 0)
(-0.000135641 0.000111874 0)
(-0.000342314 0.000356949 0)
(-0.000660884 0.000649367 0)
(-0.0010995 0.000964177 0)
(-0.00166093 0.0012835 0)
(-0.00234377 0.00159495 0)
(-0.00314351 0.00189019 0)
(-0.00405337 0.00216387 0)
(-0.005065 0.00241277 0)
(-0.00616901 0.00263526 0)
(-0.00735544 0.00283074 0)
(-0.00861407 0.0029994 0)
(-0.00993465 0.00314187 0)
(-0.0113071 0.00325909 0)
(-0.0127215 0.00335213 0)
(-0.0141683 0.0034221 0)
(-0.0156382 0.00347009 0)
(-0.0171225 0.00349707 0)
(-0.0186123 0.0035039 0)
(-0.0200994 0.00349131 0)
(-0.0215757 0.00345988 0)
(-0.0230332 0.00341006 0)
(-0.024464 0.00334216 0)
(-0.0258606 0.00325641 0)
(-0.0272153 0.00315295 0)
(-0.0285206 0.00303187 0)
(-0.0297692 0.00289324 0)
(-0.0309535 0.00273714 0)
(-0.0320664 0.00256369 0)
(-0.0331007 0.00237309 0)
(-0.0340493 0.00216564 0)
(-0.0349054 0.00194174 0)
(-0.0356626 0.001702 0)
(-0.0363145 0.00144714 0)
(-0.0368552 0.00117811 0)
(-0.0372795 0.000896075 0)
(-0.0375825 0.000602393 0)
(-0.0377601 0.00029866 0)
(-0.0378086 -1.3304e-05 0)
(-0.0377255 -0.000331456 0)
(-0.0375091 -0.000653542 0)
(-0.0371585 -0.000977106 0)
(-0.0366738 -0.00129951 0)
(-0.0360565 -0.00161797 0)
(-0.035309 -0.00192956 0)
(-0.0344349 -0.00223128 0)
(-0.033439 -0.00252005 0)
(-0.0323275 -0.00279281 0)
(-0.0311074 -0.00304651 0)
(-0.0297873 -0.00327818 0)
(-0.0283766 -0.003485 0)
(-0.0268861 -0.00366432 0)
(-0.0253273 -0.00381372 0)
(-0.0237126 -0.00393105 0)
(-0.0220555 -0.0040145 0)
(-0.0203696 -0.00406261 0)
(-0.0186695 -0.00407435 0)
(-0.0169697 -0.00404909 0)
(-0.0152852 -0.0039867 0)
(-0.0136307 -0.00388753 0)
(-0.0120208 -0.00375242 0)
(-0.0104694 -0.00358275 0)
(-0.00899015 -0.0033804 0)
(-0.00759549 -0.00314781 0)
(-0.0062969 -0.00288793 0)
(-0.00510456 -0.0026043 0)
(-0.00402709 -0.002301 0)
(-0.00307135 -0.00198275 0)
(-0.00224222 -0.00165492 0)
(-0.00154231 -0.00132365 0)
(-0.000971694 -0.000995979 0)
(-0.000527662 -0.000680044 0)
(-0.000204378 -0.000385309 0)
(7.44827e-06 -0.0001229 0)
(0.000120912 9.40191e-05 0)
(0.000153073 0.00024985 0)
(0.000125237 0.000326313 0)
(6.64678e-05 0.000302349 0)
(1.68349e-05 0.000152908 0)
(-5.5448e-06 -6.27074e-05 0)
(-7.20823e-05 4.68383e-05 0)
(-0.000254088 0.000310879 0)
(-0.000560645 0.000672487 0)
(-0.00100059 0.00109127 0)
(-0.0015799 0.00153692 0)
(-0.00229967 0.00198714 0)
(-0.00315712 0.00242602 0)
(-0.00414658 0.00284257 0)
(-0.00526024 0.00322948 0)
(-0.00648864 0.00358221 0)
(-0.0078213 0.00389826 0)
(-0.00924707 0.00417657 0)
(-0.0107545 0.00441713 0)
(-0.012332 0.00462062 0)
(-0.0139681 0.00478813 0)
(-0.0156515 0.00492101 0)
(-0.0173714 0.00502065 0)
(-0.0191169 0.00508847 0)
(-0.0208778 0.00512574 0)
(-0.022644 0.00513362 0)
(-0.0244057 0.00511308 0)
(-0.0261533 0.00506493 0)
(-0.0278775 0.00498978 0)
(-0.0295691 0.00488809 0)
(-0.031219 0.00476021 0)
(-0.0328183 0.00460637 0)
(-0.0343582 0.00442674 0)
(-0.0358299 0.00422148 0)
(-0.0372248 0.00399078 0)
(-0.0385343 0.00373487 0)
(-0.0397502 0.00345411 0)
(-0.0408642 0.00314899 0)
(-0.0418684 0.0028202 0)
(-0.0427554 0.00246864 0)
(-0.0435179 0.00209546 0)
(-0.0441492 0.00170208 0)
(-0.0446433 0.00129021 0)
(-0.0449946 0.00086188 0)
(-0.0451984 0.000419423 0)
(-0.0452509 -3.4511e-05 0)
(-0.0451491 -0.000496961 0)
(-0.0448912 -0.000964672 0)
(-0.0444763 -0.00143411 0)
(-0.0439048 -0.0019015 0)
(-0.0431784 -0.00236284 0)
(-0.0423 -0.00281398 0)
(-0.0412739 -0.00325062 0)
(-0.0401057 -0.0036684 0)
(-0.0388025 -0.00406296 0)
(-0.0373726 -0.00442998 0)
(-0.0358257 -0.00476526 0)
(-0.034173 -0.0050648 0)
(-0.0324264 -0.00532484 0)
(-0.0305995 -0.00554196 0)
(-0.0287065 -0.00571313 0)
(-0.0267626 -0.00583579 0)
(-0.0247837 -0.00590789 0)
(-0.0227864 -0.00592795 0)
(-0.0207873 -0.00589512 0)
(-0.0188036 -0.00580921 0)
(-0.0168522 -0.00567072 0)
(-0.0149497 -0.00548087 0)
(-0.0131124 -0.00524164 0)
(-0.0113555 -0.00495573 0)
(-0.00969365 -0.00462662 0)
(-0.00813991 -0.00425856 0)
(-0.00670603 -0.00385662 0)
(-0.00540198 -0.00342664 0)
(-0.00423575 -0.00297534 0)
(-0.00321306 -0.00251039 0)
(-0.00233713 -0.00204046 0)
(-0.00160841 -0.00157539 0)
(-0.00102429 -0.00112642 0)
(-0.000578832 -0.000706407 0)
(-0.000262488 -0.000330178 0)
(-6.18238e-05 -1.49157e-05 0)
(4.06326e-05 0.000219396 0)
(6.66556e-05 0.000349629 0)
(4.49324e-05 0.000349099 0)
(1.31495e-05 0.000185011 0)
(-1.35435e-05 -1.66028e-05 0)
(-0.000119173 0.000206444 0)
(-0.000379532 0.000600248 0)
(-0.000792552 0.00110272 0)
(-0.00136117 0.00166863 0)
(-0.00208839 0.00226332 0)
(-0.00297296 0.00286072 0)
(-0.00401018 0.00344186 0)
(-0.00519289 0.00399329 0)
(-0.00651196 0.00450588 0)
(-0.00795681 0.00497377 0)
(-0.00951581 0.00539359 0)
(-0.0111767 0.0057638 0)
(-0.0129269 0.00608415 0)
(-0.0147537 0.0063553 0)
(-0.0166444 0.00657847 0)
(-0.0185866 0.00675524 0)
(-0.020568 0.00688728 0)
(-0.0225768 0.00697631 0)
(-0.0246013 0.00702391 0)
(-0.0266301 0.00703151 0)
(-0.0286522 0.00700035 0)
(-0.0306567 0.00693145 0)
(-0.0326331 0.00682561 0)
(-0.0345709 0.00668346 0)
(-0.0364598 0.00650547 0)
(-0.0382895 0.00629197 0)
(-0.0400501 0.00604328 0)
(-0.0417317 0.00575965 0)
(-0.0433243 0.00544139 0)
(-0.0448185 0.00508893 0)
(-0.0462048 0.00470281 0)
(-0.0474739 0.00428379 0)
(-0.0486172 0.00383288 0)
(-0.049626 0.00335138 0)
(-0.0504924 0.00284091 0)
(-0.051209 0.00230346 0)
(-0.0517689 0.00174141 0)
(-0.0521662 0.00115754 0)
(-0.0523957 0.000555037 0)
(-0.0524532 -6.24984e-05 0)
(-0.0523354 -0.000691059 0)
(-0.0520404 -0.00132625 0)
(-0.0515675 -0.00196333 0)
(-0.050917 -0.00259723 0)
(-0.050091 -0.00322261 0)
(-0.0490929 -0.0038339 0)
(-0.0479274 -0.00442538 0)
(-0.0466009 -0.00499125 0)
(-0.0451213 -0.0055257 0)
(-0.0434979 -0.00602299 0)
(-0.0417417 -0.00647755 0)
(-0.0398648 -0.00688405 0)
(-0.0378808 -0.00723752 0)
(-0.0358046 -0.00753341 0)
(-0.0336521 -0.00776771 0)
(-0.0314402 -0.00793701 0)
(-0.0291866 -0.00803858 0)
(-0.0269097 -0.00807048 0)
(-0.024628 -0.00803156 0)
(-0.0223607 -0.00792158 0)
(-0.0201266 -0.00774119 0)
(-0.0179442 -0.00749204 0)
(-0.0158316 -0.00717675 0)
(-0.0138061 -0.00679893 0)
(-0.0118838 -0.00636325 0)
(-0.0100796 -0.00587538 0)
(-0.00840654 -0.00534207 0)
(-0.006876 -0.00477115 0)
(-0.00549708 -0.00417155 0)
(-0.00427648 -0.00355342 0)
(-0.00321817 -0.00292819 0)
(-0.00232316 -0.00230874 0)
(-0.00158924 -0.00170956 0)
(-0.00101077 -0.00114706 0)
(-0.00057837 -0.000639837 0)
(-0.000278806 -0.00020911 0)
(-9.47741e-05 0.000120824 0)
(-4.6987e-06 0.000322182 0)
(1.86389e-05 0.000363094 0)
(8.72567e-06 0.000204387 0)
(-2.14148e-05 5.40747e-05 0)
(-0.00016677 0.000429382 0)
(-0.000507785 0.000984074 0)
(-0.00103086 0.00165287 0)
(-0.00173249 0.00238712 0)
(-0.00261218 0.00314883 0)
(-0.00366578 0.00390898 0)
(-0.00488626 0.00464602 0)
(-0.00626461 0.00534444 0)
(-0.00779018 0.0059935 0)
(-0.00945106 0.00658615 0)
(-0.0112345 0.00711825 0)
(-0.013127 0.00758775 0)
(-0.0151151 0.00799419 0)
(-0.0171849 0.0083382 0)
(-0.0193227 0.00862111 0)
(-0.0215149 0.0088447 0)
(-0.0237483 0.00901092 0)
(-0.0260099 0.00912174 0)
(-0.0282868 0.00917907 0)
(-0.0305666 0.00918459 0)
(-0.0328372 0.0091398 0)
(-0.0350864 0.00904594 0)
(-0.0373027 0.008904 0)
(-0.0394743 0.00871477 0)
(-0.04159 0.00847888 0)
(-0.0436383 0.00819679 0)
(-0.0456081 0.00786894 0)
(-0.0474885 0.00749575 0)
(-0.0492686 0.00707768 0)
(-0.0509377 0.00661536 0)
(-0.0524856 0.00610959 0)
(-0.053902 0.00556144 0)
(-0.0551774 0.00497231 0)
(-0.0563023 0.00434394 0)
(-0.0572682 0.00367852 0)
(-0.0580668 0.00297868 0)
(-0.0586908 0.00224755 0)
(-0.0591336 0.00148876 0)
(-0.0593897 0.000706443 0)
(-0.0594546 -9.47357e-05 0)
(-0.0593247 -0.000909615 0)
(-0.0589981 -0.00173255 0)
(-0.0584738 -0.00255747 0)
(-0.0577526 -0.00337788 0)
(-0.0568366 -0.00418696 0)
(-0.0557295 -0.00497762 0)
(-0.0544365 -0.00574259 0)
(-0.0529647 -0.00647449 0)
(-0.0513225 -0.00716591 0)
(-0.0495203 -0.00780959 0)
(-0.0475698 -0.00839844 0)
(-0.0454843 -0.00892569 0)
(-0.0432787 -0.00938504 0)
(-0.040969 -0.00977071 0)
(-0.0385726 -0.0100776 0)
(-0.0361078 -0.0103014 0)
(-0.0335941 -0.0104385 0)
(-0.0310513 -0.0104866 0)
(-0.0285 -0.0104441 0)
(-0.0259608 -0.0103108 0)
(-0.0234543 -0.0100873 0)
(-0.021001 -0.0097759 0)
(-0.0186206 -0.00937978 0)
(-0.0163321 -0.00890359 0)
(-0.0141533 -0.00835323 0)
(-0.0121007 -0.00773593 0)
(-0.0101888 -0.00706024 0)
(-0.00843029 -0.00633612 0)
(-0.00683554 -0.00557487 0)
(-0.00541228 -0.00478931 0)
(-0.0041654 -0.00399377 0)
(-0.00309671 -0.00320429 0)
(-0.00220469 -0.00243877 0)
(-0.00148426 -0.00171723 0)
(-0.000926658 -0.00106206 0)
(-0.000519217 -0.000498472 0)
(-0.00024528 -5.49133e-05 0)
(-8.39863e-05 0.000236482 0)
(-1.03183e-05 0.000339275 0)
(3.99341e-06 0.00020929 0)
(-2.9056e-05 0.000149184 0)
(-0.000213995 0.000716393 0)
(-0.000636295 0.00146419 0)
(-0.0012709 0.00232565 0)
(-0.00210766 0.00324993 0)
(-0.00314223 0.00419675 0)
(-0.00436721 0.00513485 0)
(-0.0057729 0.00604074 0)
(-0.00734813 0.00689728 0)
(-0.00908052 0.00769241 0)
(-0.0109567 0.00841815 0)
(-0.0129626 0.00906966 0)
(-0.0150838 0.00964451 0)
(-0.0173054 0.0101421 0)
(-0.0196128 0.0105629 0)
(-0.0219912 0.0109086 0)
(-0.0244262 0.011181 0)
(-0.0269033 0.0113823 0)
(-0.0294088 0.0115148 0)
(-0.0319287 0.0115807 0)
(-0.0344497 0.011582 0)
(-0.0369585 0.0115202 0)
(-0.0394421 0.0113971 0)
(-0.0418878 0.0112136 0)
(-0.044283 0.0109708 0)
(-0.0466152 0.0106694 0)
(-0.0488723 0.0103102 0)
(-0.0510419 0.00989356 0)
(-0.0531123 0.00942018 0)
(-0.0550716 0.00889072 0)
(-0.0569083 0.00830603 0)
(-0.0586111 0.0076672 0)
(-0.0601691 0.00697567 0)
(-0.0615719 0.00623326 0)
(-0.0628093 0.00544225 0)
(-0.0638721 0.00460542 0)
(-0.0647514 0.00372614 0)
(-0.0654394 0.00280835 0)
(-0.065929 0.00185659 0)
(-0.0662142 0.000876071 0)
(-0.0662902 -0.000127421 0)
(-0.0661533 -0.00114747 0)
(-0.0658013 -0.00217708 0)
(-0.0652333 -0.00320873 0)
(-0.0644499 -0.00423443 0)
(-0.0634535 -0.00524575 0)
(-0.062248 -0.00623399 0)
(-0.060839 -0.00719017 0)
(-0.059234 -0.00810522 0)
(-0.057442 -0.00897006 0)
(-0.0554741 -0.00977575 0)
(-0.0533427 -0.0105136 0)
(-0.0510622 -0.0111752 0)
(-0.0486483 -0.0117529 0)
(-0.0461183 -0.0122396 0)
(-0.0434907 -0.0126289 0)
(-0.0407854 -0.0129155 0)
(-0.038023 -0.0130952 0)
(-0.035225 -0.0131647 0)
(-0.0324135 -0.0131222 0)
(-0.0296107 -0.0129674 0)
(-0.0268391 -0.0127011 0)
(-0.0241206 -0.0123259 0)
(-0.0214767 -0.0118457 0)
(-0.0189281 -0.0112663 0)
(-0.0164943 -0.0105947 0)
(-0.0141933 -0.00983998 0)
(-0.0120411 -0.00901249 0)
(-0.0100518 -0.00812441 0)
(-0.00823711 -0.00718958 0)
(-0.00660596 -0.00622357 0)
(-0.00516437 -0.00524375 0)
(-0.00391514 -0.00426942 0)
(-0.00285767 -0.00332196 0)
(-0.00198779 -0.00242503 0)
(-0.00129758 -0.00160482 0)
(-0.000775325 -0.000890432 0)
(-0.000405368 -0.000314279 0)
(-0.000167925 8.75154e-05 0)
(-4.06063e-05 0.000274566 0)
(-8.05876e-07 0.000198856 0)
(-3.64316e-05 0.000268287 0)
(-0.000260371 0.00106721 0)
(-0.000763517 0.0020409 0)
(-0.00150967 0.00312196 0)
(-0.00248201 0.0042584 0)
(-0.00367218 0.00540854 0)
(-0.00506931 0.00653967 0)
(-0.00666078 0.00762697 0)
(-0.00843305 0.00865212 0)
(-0.0103718 0.00960212 0)
(-0.012462 0.0104683 0)
(-0.0146884 0.0112454 0)
(-0.0170351 0.0119306 0)
(-0.0194864 0.0125233 0)
(-0.0220266 0.0130241 0)
(-0.02464 0.0134345 0)
(-0.0273112 0.0137569 0)
(-0.0300251 0.0139936 0)
(-0.0327668 0.0141471 0)
(-0.0355216 0.01422 0)
(-0.0382753 0.0142144 0)
(-0.0410137 0.0141323 0)
(-0.043723 0.0139753 0)
(-0.0463894 0.0137449 0)
(-0.0489996 0.0134423 0)
(-0.0515401 0.0130682 0)
(-0.0539979 0.0126235 0)
(-0.0563599 0.012109 0)
(-0.0586133 0.0115255 0)
(-0.0607455 0.0108737 0)
(-0.0627442 0.0101549 0)
(-0.0645973 0.0093705 0)
(-0.0662931 0.00852229 0)
(-0.0678205 0.00761258 0)
(-0.0691687 0.00664421 0)
(-0.0703277 0.00562067 0)
(-0.0712882 0.00454605 0)
(-0.0720418 0.00342521 0)
(-0.0725809 0.00226367 0)
(-0.0728992 0.00106775 0)
(-0.0729914 -0.000155532 0)
(-0.0728537 -0.00139844 0)
(-0.0724835 -0.00265255 0)
(-0.0718798 -0.00390881 0)
(-0.0710434 -0.0051576 0)
(-0.0699765 -0.00638885 0)
(-0.0686832 -0.00759209 0)
(-0.0671693 -0.00875657 0)
(-0.0654427 -0.00987142 0)
(-0.0635129 -0.0109258 0)
(-0.0613913 -0.0119089 0)
(-0.0590911 -0.0128103 0)
(-0.0566274 -0.0136202 0)
(-0.0540168 -0.014329 0)
(-0.0512775 -0.0149283 0)
(-0.0484293 -0.0154105 0)
(-0.0454931 -0.0157691 0)
(-0.0424909 -0.015999 0)
(-0.0394456 -0.0160962 0)
(-0.0363807 -0.0160585 0)
(-0.03332 -0.0158853 0)
(-0.0302875 -0.0155776 0)
(-0.0273069 -0.0151383 0)
(-0.0244013 -0.0145723 0)
(-0.0215932 -0.013886 0)
(-0.0189036 -0.0130882 0)
(-0.0163521 -0.0121892 0)
(-0.0139565 -0.0112017 0)
(-0.0117323 -0.0101401 0)
(-0.00969266 -0.0090207 0)
(-0.00784789 -0.00786203 0)
(-0.00620529 -0.00668457 0)
(-0.0047689 -0.00551095 0)
(-0.00353928 -0.00436607 0)
(-0.00251337 -0.00327726 0)
(-0.00168441 -0.00227448 0)
(-0.00104188 -0.00139061 0)
(-0.000571365 -0.000661856 0)
(-0.000254404 -0.000127985 0)
(-7.14216e-05 0.000167209 0)
(-5.54541e-06 0.000172747 0)
(-4.35383e-05 0.000410805 0)
(-0.000305652 0.00148094 0)
(-0.00088852 0.00271347 0)
(-0.00174521 0.00404138 0)
(-0.00285236 0.0054124 0)
(-0.00419756 0.00678424 0)
(-0.00576634 0.00812346 0)
(-0.00754298 0.00940449 0)
(-0.00951141 0.0106083 0)
(-0.0116552 0.0117214 0)
(-0.0139577 0.0127348 0)
(-0.0164021 0.0136427 0)
(-0.0189713 0.0144426 0)
(-0.0216485 0.0151336 0)
(-0.024417 0.0157166 0)
(-0.0272603 0.0161933 0)
(-0.0301621 0.0165661 0)
(-0.0331065 0.0168379 0)
(-0.0360777 0.0170114 0)
(-0.0390605 0.0170893 0)
(-0.0420396 0.017074 0)
(-0.0450003 0.0169679 0)
(-0.0479278 0.0167728 0)
(-0.0508077 0.0164902 0)
(-0.0536257 0.0161215 0)
(-0.0563678 0.0156678 0)
(-0.05902 0.01513 0)
(-0.0615685 0.014509 0)
(-0.0639997 0.0138059 0)
(-0.0663003 0.0130217 0)
(-0.0684572 0.0121579 0)
(-0.0704577 0.0112162 0)
(-0.0722893 0.0101989 0)
(-0.0739403 0.00910891 0)
(-0.0753992 0.00794954 0)
(-0.0766556 0.00672502 0)
(-0.0776994 0.0054403 0)
(-0.0785217 0.00410111 0)
(-0.0791146 0.00271408 0)
(-0.0794712 0.00128665 0)
(-0.0795859 -0.000172871 0)
(-0.0794545 -0.00165534 0)
(-0.0790743 -0.00315085 0)
(-0.078444 -0.00464874 0)
(-0.0775641 -0.00613771 0)
(-0.0764369 -0.00760593 0)
(-0.0750665 -0.00904108 0)
(-0.0734589 -0.0104306 0)
(-0.071622 -0.0117616 0)
(-0.0695656 -0.0130215 0)
(-0.0673015 -0.0141975 0)
(-0.0648435 -0.0152775 0)
(-0.0622072 -0.0162496 0)
(-0.05941 -0.0171028 0)
(-0.056471 -0.0178271 0)
(-0.0534108 -0.0184134 0)
(-0.0502514 -0.018854 0)
(-0.0470161 -0.0191428 0)
(-0.043729 -0.019275 0)
(-0.0404151 -0.0192479 0)
(-0.0370997 -0.0190607 0)
(-0.0338084 -0.0187143 0)
(-0.0305665 -0.0182121 0)
(-0.0273989 -0.0175594 0)
(-0.0243296 -0.016764 0)
(-0.0213815 -0.0158359 0)
(-0.0185759 -0.0147871 0)
(-0.0159322 -0.0136323 0)
(-0.0134678 -0.0123883 0)
(-0.0111972 -0.011074 0)
(-0.00913245 -0.00971092 0)
(-0.00728226 -0.00832271 0)
(-0.00565209 -0.00693539 0)
(-0.0042439 -0.00557744 0)
(-0.00305598 -0.00427984 0)
(-0.00208291 -0.00307629 0)
(-0.00131558 -0.0020034 0)
(-0.000741016 -0.00110096 0)
(-0.000342172 -0.000412145 0)
(-0.000102319 1.62639e-05 0)
(-1.0167e-05 0.000130921 0)
(-5.03854e-05 0.000576093 0)
(-0.000349711 0.00195635 0)
(-0.00101074 0.0034805 0)
(-0.00197626 0.00508257 0)
(-0.00321656 0.00671071 0)
(-0.0047152 0.00832272 0)
(-0.00645406 0.00988509 0)
(-0.00841426 0.011372 0)
(-0.0105771 0.0127644 0)
(-0.0129239 0.0140485 0)
(-0.0154363 0.0152152 0)
(-0.0180958 0.0162589 0)
(-0.0208842 0.017177 0)
(-0.0237835 0.017969 0)
(-0.026776 0.0186359 0)
(-0.0298443 0.0191797 0)
(-0.0329715 0.0196031 0)
(-0.0361407 0.0199092 0)
(-0.0393357 0.0201012 0)
(-0.0425402 0.0201819 0)
(-0.0457386 0.0201542 0)
(-0.0489152 0.0200205 0)
(-0.0520548 0.0197828 0)
(-0.0551421 0.0194429 0)
(-0.0581623 0.0190024 0)
(-0.0611005 0.0184625 0)
(-0.0639422 0.0178242 0)
(-0.0666728 0.0170888 0)
(-0.0692781 0.0162573 0)
(-0.0717441 0.0153313 0)
(-0.0740571 0.0143124 0)
(-0.0762036 0.0132027 0)
(-0.0781706 0.012005 0)
(-0.0799457 0.0107225 0)
(-0.0815169 0.00935954 0)
(-0.0828731 0.00792085 0)
(-0.0840037 0.00641226 0)
(-0.0848994 0.00484049 0)
(-0.0855516 0.00321324 0)
(-0.0859531 0.00153916 0)
(-0.0860978 -0.000172109 0)
(-0.0859811 -0.00191 0)
(-0.0855998 -0.00366303 0)
(-0.0849525 -0.0054189 0)
(-0.0840395 -0.00716457 0)
(-0.0828628 -0.00888634 0)
(-0.0814263 -0.01057 0)
(-0.079736 -0.0122011 0)
(-0.0777999 -0.0137647 0)
(-0.0756279 -0.0152462 0)
(-0.0732322 -0.0166309 0)
(-0.0706267 -0.0179046 0)
(-0.0678275 -0.0190537 0)
(-0.0648527 -0.0200653 0)
(-0.061722 -0.0209276 0)
(-0.058457 -0.0216302 0)
(-0.0550806 -0.0221639 0)
(-0.0516171 -0.0225214 0)
(-0.0480921 -0.0226972 0)
(-0.0445318 -0.0226878 0)
(-0.040963 -0.022492 0)
(-0.0374129 -0.0221109 0)
(-0.0339085 -0.0215479 0)
(-0.0304765 -0.0208092 0)
(-0.0271426 -0.0199035 0)
(-0.0239316 -0.0188419 0)
(-0.0208666 -0.0176385 0)
(-0.0179689 -0.0163099 0)
(-0.0152576 -0.0148751 0)
(-0.0127493 -0.013356 0)
(-0.0104574 -0.011777 0)
(-0.00839258 -0.0101649 0)
(-0.0065618 -0.00854926 0)
(-0.00496864 -0.00696213 0)
(-0.00361293 -0.00543819 0)
(-0.00249079 -0.00401487 0)
(-0.00159468 -0.00273242 0)
(-0.000913138 -0.00163415 0)
(-0.000430604 -0.000766416 0)
(-0.000133102 -0.000178751 0)
(-1.46545e-05 7.34765e-05 0)
(-5.69852e-05 0.00076348 0)
(-0.00039249 0.00249198 0)
(-0.00112985 0.00434013 0)
(-0.00220199 0.00624351 0)
(-0.00357311 0.00815129 0)
(-0.00522281 0.010022 0)
(-0.00712934 0.0118225 0)
(-0.00927063 0.0135275 0)
(-0.0116253 0.015118 0)
(-0.0141724 0.0165807 0)
(-0.0168917 0.0179066 0)
(-0.019763 0.0190906 0)
(-0.0227669 0.0201303 0)
(-0.0258843 0.0210254 0)
(-0.0290965 0.0217775 0)
(-0.0323853 0.0223888 0)
(-0.0357329 0.0228626 0)
(-0.0391218 0.0232021 0)
(-0.0425351 0.0234109 0)
(-0.045956 0.0234922 0)
(-0.0493681 0.0234491 0)
(-0.0527553 0.0232841 0)
(-0.0561016 0.0229997 0)
(-0.0593914 0.0225978 0)
(-0.062609 0.02208 0)
(-0.0657392 0.0214477 0)
(-0.0687666 0.0207023 0)
(-0.0716762 0.019845 0)
(-0.0744532 0.0188772 0)
(-0.077083 0.0178007 0)
(-0.0795511 0.0166174 0)
(-0.0818437 0.0153298 0)
(-0.0839471 0.0139411 0)
(-0.0858483 0.0124553 0)
(-0.0875347 0.010877 0)
(-0.0889946 0.00921192 0)
(-0.0902171 0.00746672 0)
(-0.091192 0.0056491 0)
(-0.0919104 0.00376785 0)
(-0.0923645 0.00183288 0)
(-0.0925477 -0.000144832 0)
(-0.0924549 -0.00215324 0)
(-0.0920826 -0.00417929 0)
(-0.0914289 -0.00620896 0)
(-0.0904936 -0.00822741 0)
(-0.0892785 -0.0102191 0)
(-0.0877874 -0.0121678 0)
(-0.0860258 -0.0140569 0)
(-0.0840018 -0.0158697 0)
(-0.0817252 -0.0175892 0)
(-0.0792082 -0.0191988 0)
(-0.0764651 -0.0206821 0)
(-0.0735122 -0.0220235 0)
(-0.070368 -0.0232083 0)
(-0.0670529 -0.0242228 0)
(-0.0635892 -0.0250549 0)
(-0.0600006 -0.0256939 0)
(-0.0563127 -0.0261313 0)
(-0.0525521 -0.0263604 0)
(-0.0487464 -0.0263771 0)
(-0.0449239 -0.0261796 0)
(-0.0411135 -0.0257688 0)
(-0.0373438 -0.0251485 0)
(-0.0336434 -0.0243254 0)
(-0.0300399 -0.023309 0)
(-0.02656 -0.0221119 0)
(-0.0232289 -0.0207498 0)
(-0.02007 -0.0192413 0)
(-0.0171043 -0.0176079 0)
(-0.0143502 -0.0158742 0)
(-0.0118234 -0.0140676 0)
(-0.00953621 -0.0122183 0)
(-0.00749757 -0.0103593 0)
(-0.00571279 -0.00852625 0)
(-0.00418344 -0.00675763 0)
(-0.00290733 -0.00509456 0)
(-0.00187859 -0.00358097 0)
(-0.00108736 -0.0022636 0)
(-0.000519531 -0.00119194 0)
(-0.000163741 -0.00041813 0)
(-1.90179e-05 5.53508e-07 0)
(-6.33495e-05 0.000972283 0)
(-0.000433957 0.00308621 0)
(-0.00124562 0.00529018 0)
(-0.00242183 0.0075217 0)
(-0.00392094 0.00973148 0)
(-0.00571869 0.0118792 0)
(-0.00778979 0.0139329 0)
(-0.010109 0.0158679 0)
(-0.0126521 0.0176662 0)
(-0.0153961 0.0193149 0)
(-0.0183187 0.0208058 0)
(-0.0213981 0.0221342 0)
(-0.0246136 0.0232984 0)
(-0.0279449 0.0242986 0)
(-0.0313724 0.0251369 0)
(-0.034877 0.025816 0)
(-0.0384402 0.0263396 0)
(-0.0420439 0.0267115 0)
(-0.0456705 0.0269354 0)
(-0.0493028 0.0270149 0)
(-0.0529238 0.0269535 0)
(-0.0565168 0.026754 0)
(-0.0600654 0.0264189 0)
(-0.0635534 0.0259504 0)
(-0.0669648 0.0253502 0)
(-0.0702835 0.02462 0)
(-0.073494 0.0237613 0)
(-0.0765806 0.0227755 0)
(-0.079528 0.0216641 0)
(-0.082321 0.0204292 0)
(-0.0849447 0.0190731 0)
(-0.0873846 0.0175987 0)
(-0.0896266 0.0160096 0)
(-0.091657 0.0143102 0)
(-0.0934628 0.012506 0)