/*--------------------------------*- C++ -*----------------------------------*\
| =========                 |                                                 |
| \\      /  F ield         | OpenFOAM: The Open Source CFD Toolbox           |
|  \\    /   O peration     | Version:  2.1.1                                 |
|   \\  /    A nd           | Web:      www.OpenFOAM.org                      |
|    \\/     M anipulation  |                                                 |
\*---------------------------------------------------------------------------*/
FoamFile
{
    version     2.0;
    format      ascii;
    class       surfaceScalarField;
    location    "0.5";
    object      phi;
}
// * * * * * * * * * * * * * * * * * * * * * * * * * * * * * * * * * * * * * //

dimensions      [0 3 -1 0 0 0 0];

internalField   nonuniform List<scalar> 
12960
(
5.31515e-11
-5.31515e-11
1.47669e-10
-9.45174e-11
2.253e-10
-7.7631e-11
2.541e-10
-2.88003e-11
2.19648e-10
3.44526e-11
1.17015e-10
1.02632e-10
-5.33051e-11
1.7032e-10
-2.87944e-10
2.34639e-10
-5.81976e-10
2.94031e-10
-9.29715e-10
3.47739e-10
-1.32521e-09
3.95498e-10
-1.76255e-09
4.37332e-10
-2.23598e-09
4.73439e-10
-2.74009e-09
5.04109e-10
-3.26978e-09
5.29683e-10
-3.82029e-09
5.50512e-10
-4.38723e-09
5.66942e-10
-4.96652e-09
5.79293e-10
-5.55437e-09
5.87849e-10
-6.14723e-09
5.92856e-10
-6.74175e-09
5.94519e-10
-7.33474e-09
5.92997e-10
-7.92315e-09
5.8841e-10
-8.50399e-09
5.8084e-10
-9.07433e-09
5.70336e-10
-9.63125e-09
5.5692e-10
-1.01718e-08
5.4059e-10
-1.06932e-08
5.21332e-10
-1.11923e-08
4.99119e-10
-1.16662e-08
4.73926e-10
-1.21119e-08
4.45731e-10
-1.25265e-08
4.14522e-10
-1.29068e-08
3.80306e-10
-1.32499e-08
3.43112e-10
-1.35529e-08
3.03e-10
-1.38129e-08
2.60061e-10
-1.40274e-08
2.14425e-10
-1.41936e-08
1.66262e-10
-1.43094e-08
1.15789e-10
-1.43727e-08
6.32637e-11
-1.43817e-08
8.99536e-12
-1.4335e-08
-4.66628e-11
-1.42317e-08
-1.03311e-10
-1.40712e-08
-1.60507e-10
-1.38534e-08
-2.17767e-10
-1.35789e-08
-2.74573e-10
-1.32485e-08
-3.30378e-10
-1.28639e-08
-3.84608e-10
-1.24272e-08
-4.36677e-10
-1.19412e-08
-4.85989e-10
-1.14093e-08
-5.31952e-10
-1.08353e-08
-5.73985e-10
-1.02237e-08
-6.11527e-10
-9.57969e-09
-6.44053e-10
-8.90862e-09
-6.71077e-10
-8.21645e-09
-6.92169e-10
-7.50949e-09
-7.06958e-10
-6.79434e-09
-7.15145e-10
-6.07783e-09
-7.1651e-10
-5.36692e-09
-7.10916e-10
-4.6686e-09
-6.98316e-10
-3.98985e-09
-6.78756e-10
-3.33747e-09
-6.52377e-10
-2.71805e-09
-6.19417e-10
-2.13784e-09
-5.80209e-10
-1.60266e-09
-5.3518e-10
-1.11781e-09
-4.84853e-10
-6.87968e-10
-4.29844e-10
-3.171e-10
-3.70867e-10
-8.35554e-12
-3.08745e-10
2.361e-10
-2.44456e-10
4.15129e-10
-1.79029e-10
5.28929e-10
-1.13799e-10
5.79286e-10
-5.0357e-11
5.70008e-10
9.27749e-12
5.07641e-10
6.23669e-11
4.0251e-10
1.05131e-10
2.7034e-10
1.3217e-10
1.34821e-10
1.3552e-10
3.12953e-11
1.03525e-10
3.12953e-11
9.50113e-11
-1.48163e-10
2.19195e-10
-2.18701e-10
2.79885e-10
-1.38321e-10
2.20396e-10
3.06881e-11
8.49267e-12
2.46356e-10
-3.70261e-10
4.81386e-10
-9.1864e-10
7.187e-10
-1.63161e-09
9.47606e-10
-2.4994e-09
1.16183e-09
-3.50952e-09
1.35785e-09
-4.648e-09
1.53398e-09
-5.90033e-09
1.68966e-09
-7.25198e-09
1.82509e-09
-8.6888e-09
1.94093e-09
-1.01972e-08
2.03809e-09
-1.17643e-08
2.11762e-09
-1.3378e-08
2.18059e-09
-1.50267e-08
2.22802e-09
-1.66997e-08
2.26086e-09
-1.83868e-08
2.27995e-09
-2.00782e-08
2.28598e-09
-2.17648e-08
2.27952e-09
-2.34374e-08
2.26101e-09
-2.50873e-08
2.23077e-09
-2.6706e-08
2.189e-09
-2.82849e-08
2.13581e-09
-2.98155e-08
2.07124e-09
-3.12894e-08
1.99528e-09
-3.26982e-08
1.90791e-09
-3.40334e-08
1.80908e-09
-3.52864e-08
1.69877e-09
-3.64489e-08
1.57702e-09
-3.75126e-08
1.44392e-09
-3.84691e-08
1.29964e-09
-3.93106e-08
1.14448e-09
-4.00293e-08
9.78837e-10
-4.06182e-08
8.03259e-10
-4.10704e-08
6.18444e-10
-4.13798e-08
4.25244e-10
-4.15412e-08
2.24678e-10
-4.15502e-08
1.79314e-11
-4.14032e-08
-1.93645e-10
-4.1098e-08
-4.08538e-10
-4.06334e-08
-6.25083e-10
-4.00097e-08
-8.41474e-10
-3.92285e-08
-1.05579e-09
-3.82928e-08
-1.26599e-09
-3.72075e-08
-1.46997e-09
-3.59786e-08
-1.66557e-09
-3.4614e-08
-1.85062e-09
-3.3123e-08
-2.02294e-09
-3.15165e-08
-2.18042e-09
-2.9807e-08
-2.32103e-09
-2.80082e-08
-2.44286e-09
-2.61351e-08
-2.54415e-09
-2.4204e-08
-2.62335e-09
-2.22318e-08
-2.67913e-09
-2.02365e-08
-2.71042e-09
-1.82366e-08
-2.71643e-09
-1.62508e-08
-2.69668e-09
-1.42981e-08
-2.65105e-09
-1.23972e-08
-2.57971e-09
-1.05663e-08
-2.48322e-09
-8.82324e-09
-2.36248e-09
-7.18468e-09
-2.21877e-09
-5.66616e-09
-2.0537e-09
-4.28173e-09
-1.86928e-09
-3.04372e-09
-1.66785e-09
-1.96241e-09
-1.45218e-09
-1.04573e-09
-1.22543e-09
-2.98931e-10
-9.9125e-10
2.75898e-10
-7.53859e-10
6.80329e-10
-5.1823e-10
9.20308e-10
-2.90336e-10
1.00713e-09
-7.75437e-11
9.58697e-10
1.10799e-10
8.01229e-10
2.62598e-10
5.71326e-10
3.62073e-10
3.17997e-10
3.88849e-10
1.03068e-10
3.18454e-10
1.34363e-10
7.90966e-11
-2.27259e-10
1.4059e-10
-2.80194e-10
8.09168e-11
-7.8648e-11
-1.65003e-10
2.76608e-10
-6.36509e-10
7.17862e-10
-1.35306e-09
1.19794e-09
-2.31932e-09
1.68496e-09
-3.52976e-09
2.15805e-09
-4.97195e-09
2.60402e-09
-6.62902e-09
3.01493e-09
-8.48149e-09
3.38645e-09
-1.05085e-08
3.71671e-09
-1.26889e-08
4.00546e-09
-1.50015e-08
4.25351e-09
-1.74257e-08
4.46233e-09
-1.99419e-08
4.63374e-09
-2.25309e-08
4.76968e-09
-2.5175e-08
4.8721e-09
-2.7857e-08
4.94281e-09
-3.05605e-08
4.98344e-09
-3.32699e-08
4.99539e-09
-3.59702e-08
4.97981e-09
-3.86468e-08
4.9376e-09
-4.12854e-08
4.86943e-09
-4.38722e-08
4.77577e-09
-4.63933e-08
4.65689e-09
-4.8835e-08
4.51296e-09
-5.11837e-08
4.34401e-09
-5.34259e-08
4.15007e-09
-5.5548e-08
3.93115e-09
-5.75365e-08
3.68731e-09
-5.93782e-08
3.41871e-09
-6.10599e-08
3.12566e-09
-6.25689e-08
2.80865e-09
-6.38929e-08
2.46839e-09
-6.50199e-08
2.10586e-09
-6.59389e-08
1.72232e-09
-6.66398e-08
1.31933e-09
-6.71134e-08
8.98816e-10
-6.73517e-08
4.63009e-10
-6.73483e-08
1.45034e-11
-6.70982e-08
-4.43773e-10
-6.65982e-08
-9.08555e-10
-6.5847e-08
-1.37627e-09
-6.48454e-08
-1.84306e-09
-6.35963e-08
-2.30483e-09
-6.21051e-08
-2.75726e-09
-6.03791e-08
-3.1959e-09
-5.84285e-08
-3.61618e-09
-5.62656e-08
-4.01353e-09
-5.39052e-08
-4.38338e-09
-5.13643e-08
-4.72129e-09
-4.86623e-08
-5.02302e-09
-4.58206e-08
-5.28456e-09
-4.28625e-08
-5.50226e-09
-3.9813e-08
-5.67287e-09
-3.66985e-08
-5.79363e-09
-3.35466e-08
-5.86232e-09
-3.03857e-08
-5.87732e-09
-2.72447e-08
-5.83767e-09
-2.41527e-08
-5.7431e-09
-2.11383e-08
-5.59405e-09
-1.82298e-08
-5.39174e-09
-1.54542e-08
-5.13812e-09
-1.2837e-08
-4.83591e-09
-1.04021e-08
-4.48865e-09
-8.17077e-09
-4.10062e-09
-6.1617e-09
-3.67692e-09
-4.39035e-09
-3.22352e-09
-2.86851e-09
-2.74727e-09
-1.60371e-09
-2.25605e-09
-5.98635e-10
-1.75894e-09
1.49649e-10
-1.26651e-09
6.50581e-10
-7.91268e-10
9.21226e-10
-3.48188e-10
9.8764e-10
4.43851e-11
8.86419e-10
3.6382e-10
6.66447e-10
5.82044e-10
3.90325e-10
6.64971e-10
1.35296e-10
5.73483e-10
2.6966e-10
3.08019e-11
-2.58061e-10
-2.90399e-11
-2.20352e-10
-2.77707e-10
1.70019e-10
-7.78998e-10
7.77899e-10
-1.57206e-09
1.51092e-09
-2.67653e-09
2.30241e-09
-4.09691e-09
3.10534e-09
-5.82651e-09
3.88765e-09
-7.85064e-09
4.62814e-09
-1.01491e-08
5.31343e-09
-1.26984e-08
5.93572e-09
-1.54728e-08
6.49111e-09
-1.84458e-08
6.97846e-09
-2.15907e-08
7.39843e-09
-2.48813e-08
7.75288e-09
-2.82919e-08
8.04433e-09
-3.17978e-08
8.27562e-09
-3.53754e-08
8.44967e-09
-3.90018e-08
8.56926e-09
-4.26553e-08
8.63692e-09
-4.63148e-08
8.65487e-09
-4.99599e-08
8.62494e-09
-5.35709e-08
8.54861e-09
-5.71285e-08
8.427e-09
-6.06136e-08
8.26092e-09
-6.40077e-08
8.0509e-09
-6.7292e-08
7.79727e-09
-7.04482e-08
7.50021e-09
-7.3458e-08
7.15988e-09
-7.63032e-08
6.77642e-09
-7.8966e-08
6.35008e-09
-8.14286e-08
5.88128e-09
-8.36736e-08
5.37069e-09
-8.56842e-08
4.8193e-09
-8.74443e-08
4.22847e-09
-8.89385e-08
3.6e-09
-9.01523e-08
2.93616e-09
-9.10727e-08
2.23976e-09
-9.16881e-08
1.51414e-09
-9.19883e-08
7.63198e-10
-9.19652e-08
-8.57386e-12
-9.16128e-08
-7.96155e-10
-9.09274e-08
-1.59396e-09
-8.99078e-08
-2.3959e-09
-8.85554e-08
-3.19544e-09
-8.68746e-08
-3.98565e-09
-8.48726e-08
-4.75925e-09
-8.25597e-08
-5.50873e-09
-7.99495e-08
-6.22646e-09
-7.70583e-08
-6.90473e-09
-7.39057e-08
-7.53593e-09
-7.05144e-08
-8.11265e-09
-6.69096e-08
-8.62777e-09
-6.31195e-08
-9.07464e-09
-5.91746e-08
-9.44718e-09
-5.51075e-08
-9.73999e-09
-5.09526e-08
-9.94847e-09
-4.6746e-08
-1.0069e-08
-4.25245e-08
-1.00988e-08
-3.83258e-08
-1.00364e-08
-3.41876e-08
-9.88129e-09
-3.01473e-08
-9.63437e-09
-2.62414e-08
-9.29766e-09
-2.2505e-08
-8.87452e-09
-1.89713e-08
-8.36961e-09
-1.5671e-08
-7.78891e-09
-1.26319e-08
-7.13977e-09
-9.87792e-09
-6.43089e-09
-7.42904e-09
-5.67241e-09
-5.3003e-09
-4.87601e-09
-3.50128e-09
-4.05507e-09
-2.03531e-09
-3.2249e-09
-8.98665e-10
-2.40316e-09
-7.95802e-11
-1.61035e-09
4.42815e-10
-8.70584e-10
6.99688e-10
-2.12488e-10
7.33874e-10
3.29634e-10
6.01267e-10
7.14651e-10
3.72306e-10
8.93932e-10
1.34162e-10
8.11628e-10
4.03822e-10
-3.34301e-11
-2.24631e-10
-2.51238e-10
-2.54481e-12
-7.35262e-10
6.54043e-10
-1.54072e-09
1.58336e-09
-2.70128e-09
2.67148e-09
-4.23306e-09
3.83419e-09
-6.13798e-09
5.01025e-09
-8.40694e-09
6.15661e-09
-1.10227e-08
7.24385e-09
-1.39619e-08
8.25273e-09
-1.71977e-08
9.17148e-09
-2.07004e-08
9.99379e-09
-2.44392e-08
1.07172e-08
-2.83828e-08
1.1342e-08
-3.25001e-08
1.18702e-08
-3.67608e-08
1.2305e-08
-4.1135e-08
1.26499e-08
-4.55942e-08
1.29088e-08
-5.01105e-08
1.30856e-08
-5.46572e-08
1.31836e-08
-5.92083e-08
1.3206e-08
-6.37388e-08
1.31554e-08
-6.8224e-08
1.30338e-08
-7.26399e-08
1.28429e-08
-7.6963e-08
1.2584e-08
-8.11699e-08
1.22578e-08
-8.52376e-08
1.1865e-08
-8.91433e-08
1.14059e-08
-9.28644e-08
1.0881e-08
-9.63785e-08
1.02905e-08
-9.96636e-08
9.63515e-09
-1.02698e-07
8.91568e-09
-1.05461e-07
8.1333e-09
-1.07931e-07
7.28969e-09
-1.1009e-07
6.38708e-09
-1.11918e-07
5.42836e-09
-1.13399e-07
4.41711e-09
-1.14517e-07
3.35768e-09
-1.15258e-07
2.25523e-09
-1.1561e-07
1.11572e-09
-1.15565e-07
-5.40378e-11
-1.15115e-07
-1.24644e-09
-1.14256e-07
-2.4531e-09
-1.12987e-07
-3.66489e-09
-1.1131e-07
-4.87204e-09
-1.09231e-07
-6.0642e-09
-1.0676e-07
-7.23057e-09
-1.03909e-07
-8.36001e-09
-1.00694e-07
-9.44118e-09
-9.71361e-08
-1.04627e-08
-9.32587e-08
-1.14133e-08
-8.90892e-08
-1.22821e-08
-8.46583e-08
-1.30586e-08
-8e-08
-1.3733e-08
-7.51509e-08
-1.42963e-08
-7.01504e-08
-1.47405e-08
-6.50398e-08
-1.5059e-08
-5.98624e-08
-1.52464e-08
-5.46625e-08
-1.52987e-08
-4.94852e-08
-1.52136e-08
-4.43759e-08
-1.49906e-08
-3.93794e-08
-1.46309e-08
-3.45394e-08
-1.41376e-08
-2.98982e-08
-1.35158e-08
-2.54955e-08
-1.27723e-08
-2.13681e-08
-1.19162e-08
-1.75494e-08
-1.09585e-08
-1.40681e-08
-9.91217e-09
-1.09481e-08
-8.79236e-09
-8.20762e-09
-7.61652e-09
-5.85819e-09
-6.4045e-09
-3.90418e-09
-5.17891e-09
-2.34179e-09
-3.96556e-09
-1.15815e-09
-2.79399e-09
-3.30386e-10
-1.69835e-09
1.75459e-10
-7.18332e-10
4.0548e-10
9.9612e-11
4.19151e-10
7.0098e-10
2.90802e-10
1.02228e-09
1.12128e-10
9.90301e-10
5.1595e-10
-1.0516e-10
-1.19471e-10
-5.01674e-10
3.93969e-10
-1.25073e-09
1.4031e-09
-2.39345e-09
2.72607e-09
-3.95425e-09
4.23229e-09
-5.94276e-09
5.82269e-09
-8.35612e-09
7.42361e-09
-1.11814e-08
8.98194e-09
-1.43981e-08
1.04605e-08
-1.79796e-08
1.18343e-08
-2.18956e-08
1.30875e-08
-2.6113e-08
1.42112e-08
-3.05973e-08
1.52015e-08
-3.53133e-08
1.6058e-08
-4.02258e-08
1.67828e-08
-4.53003e-08
1.73794e-08
-5.05026e-08
1.78522e-08
-5.57999e-08
1.82061e-08
-6.11599e-08
1.84456e-08
-6.65515e-08
1.85752e-08
-7.19444e-08
1.8599e-08
-7.73091e-08
1.85201e-08
-8.26168e-08
1.83414e-08
-8.7839e-08
1.80652e-08
-9.2948e-08
1.7693e-08
-9.79164e-08
1.72261e-08
-1.02717e-07
1.66655e-08
-1.07323e-07
1.60118e-08
-1.11707e-07
1.52656e-08
-1.15845e-07
1.44278e-08
-1.19709e-07
1.34993e-08
-1.23275e-07
1.24815e-08
-1.26517e-07
1.13762e-08
-1.29414e-07
1.01862e-08
-1.31941e-07
8.91457e-09
-1.34079e-07
7.56567e-09
-1.35806e-07
6.14463e-09
-1.37106e-07
4.65767e-09
-1.37963e-07
3.11208e-09
-1.38364e-07
1.51626e-09
-1.38297e-07
-1.20275e-10
-1.37757e-07
-1.78694e-09
-1.36738e-07
-3.47207e-09
-1.3524e-07
-5.16307e-09
-1.33265e-07
-6.84644e-09
-1.30822e-07
-8.50795e-09
-1.27919e-07
-1.01328e-08
-1.24574e-07
-1.17056e-08
-1.20804e-07
-1.32109e-08
-1.16634e-07
-1.46331e-08
-1.1209e-07
-1.5957e-08
-1.07205e-07
-1.71674e-08
-1.02013e-07
-1.82502e-08
-9.65544e-08
-1.91919e-08
-9.08703e-08
-1.99803e-08
-8.50061e-08
-2.06047e-08
-7.90094e-08
-2.10558e-08
-7.29295e-08
-2.13263e-08
-6.68174e-08
-2.14108e-08
-6.07248e-08
-2.13062e-08
-5.47035e-08
-2.10118e-08
-4.88051e-08
-2.05293e-08
-4.30797e-08
-1.9863e-08
-3.75758e-08
-1.90197e-08
-3.23391e-08
-1.80091e-08
-2.74119e-08
-1.68435e-08
-2.28324e-08
-1.5538e-08
-1.8634e-08
-1.41105e-08
-1.48444e-08
-1.2582e-08
-1.14847e-08
-1.09763e-08
-8.56872e-09
-9.32044e-09
-6.10241e-09
-7.64522e-09
-4.08265e-09
-5.98531e-09
-2.49662e-09
-4.38002e-09
-1.3209e-09
-2.87407e-09
-5.20628e-10
-1.51861e-09
-4.86234e-11
-3.72393e-10
1.55609e-10
4.96748e-10
1.67111e-10
1.01078e-09
7.74922e-11
1.07992e-09
5.93442e-10
-1.79513e-10
6.00419e-11
-7.66017e-10
9.80473e-10
-1.79724e-09
2.43432e-09
-3.29811e-09
4.22695e-09
-5.28108e-09
6.21526e-09
-7.74695e-09
8.28856e-09
-1.06862e-08
1.03629e-08
-1.40809e-08
1.23766e-08
-1.79061e-08
1.42857e-08
-2.21317e-08
1.60598e-08
-2.67236e-08
1.76794e-08
-3.16456e-08
1.91331e-08
-3.68595e-08
2.04155e-08
-4.23269e-08
2.15254e-08
-4.8009e-08
2.24648e-08
-5.38674e-08
2.32378e-08
-5.98644e-08
2.38493e-08
-6.59634e-08
2.4305e-08
-7.21281e-08
2.46104e-08
-7.83237e-08
2.47708e-08
-8.45159e-08
2.47912e-08
-9.06713e-08
2.46755e-08
-9.67572e-08
2.44273e-08
-1.02741e-07
2.40493e-08
-1.08592e-07
2.35438e-08
-1.14278e-07
2.29122e-08
-1.19769e-07
2.21561e-08
-1.25033e-07
2.12763e-08
-1.30042e-07
2.0274e-08
-1.34764e-07
1.91505e-08
-1.39172e-07
1.79071e-08
-1.43237e-07
1.6546e-08
-1.46931e-07
1.507e-08
-1.50227e-07
1.34827e-08
-1.53101e-07
1.17887e-08
-1.55529e-07
9.99373e-09
-1.5749e-07
8.1049e-09
-1.58962e-07
6.13051e-09
-1.59931e-07
4.08031e-09
-1.6038e-07
1.96544e-09
-1.60299e-07
-2.01533e-10
-1.59679e-07
-2.40665e-09
-1.58516e-07
-4.63463e-09
-1.5681e-07
-6.86897e-09
-1.54565e-07
-9.09207e-09
-1.51787e-07
-1.12854e-08
-1.4849e-07
-1.34296e-08
-1.44691e-07
-1.55048e-08
-1.40411e-07
-1.74909e-08
-1.35677e-07
-1.93678e-08
-1.30518e-07
-2.11155e-08
-1.24971e-07
-2.27146e-08
-1.19074e-07
-2.41466e-08
-1.12872e-07
-2.53943e-08
-1.06411e-07
-2.64418e-08
-9.97402e-08
-2.72751e-08
-9.29137e-08
-2.78823e-08
-8.59862e-08
-2.82537e-08
-7.90144e-08
-2.83827e-08
-7.20557e-08
-2.82649e-08
-6.5168e-08
-2.78995e-08
-5.84087e-08
-2.72886e-08
-5.18339e-08
-2.64378e-08
-4.54975e-08
-2.5356e-08
-3.94509e-08
-2.40557e-08
-3.37414e-08
-2.25529e-08
-2.84121e-08
-2.08673e-08
-2.35006e-08
-1.9022e-08
-1.90383e-08
-1.70443e-08
-1.50495e-08
-1.4965e-08
-1.15509e-08
-1.28191e-08
-8.55024e-09
-1.06459e-08
-6.04598e-09
-8.48957e-09
-4.02636e-09
-6.39964e-09
-2.46869e-09
-4.43175e-09
-1.33866e-09
-2.64864e-09
-5.89725e-10
-1.12133e-09
-1.62382e-10
6.94051e-11
1.66491e-11
8.31748e-10
3.5585e-11
1.06098e-09
6.29027e-10
-2.54233e-10
3.14275e-10
-1.03518e-09
1.76142e-09
-2.35744e-09
3.75658e-09
-4.22839e-09
6.0979e-09
-6.6469e-09
8.63378e-09
-9.60334e-09
1.1245e-08
-1.30802e-08
1.38397e-08
-1.7053e-08
1.63495e-08
-2.14918e-08
1.87245e-08
-2.63622e-08
2.09302e-08
-3.16264e-08
2.29436e-08
-3.72444e-08
2.47512e-08
-4.31752e-08
2.63462e-08
-4.93767e-08
2.77269e-08
-5.5807e-08
2.88952e-08
-6.24245e-08
2.98554e-08
-6.91883e-08
3.06131e-08
-7.60582e-08
3.11748e-08
-8.29948e-08
3.15469e-08
-8.99596e-08
3.17356e-08
-9.6915e-08
3.17466e-08
-1.03824e-07
3.15846e-08
-1.10651e-07
3.12539e-08
-1.17359e-07
3.07577e-08
-1.23914e-07
3.00989e-08
-1.30281e-07
2.92794e-08
-1.36426e-07
2.83011e-08
-1.42316e-07
2.71654e-08
-1.47915e-07
2.58738e-08
-1.53193e-07
2.44282e-08
-1.58116e-07
2.28306e-08
-1.62655e-07
2.10841e-08
-1.66777e-07
1.91923e-08
-1.70454e-07
1.71602e-08
-1.7366e-07
1.49939e-08
-1.76367e-07
1.27009e-08
-1.78552e-07
1.02902e-08
-1.80194e-07
7.77269e-09
-1.81275e-07
5.16071e-09
-1.81778e-07
2.46848e-09
-1.81691e-07
-2.88102e-10
-1.81006e-07
-3.0914e-09
-1.79719e-07
-5.92218e-09
-1.77828e-07
-8.7597e-09
-1.75338e-07
-1.15819e-08
-1.72258e-07
-1.43655e-08
-1.68601e-07
-1.70864e-08
-1.64386e-07
-1.97197e-08
-1.59637e-07
-2.22404e-08
-1.54381e-07
-2.46233e-08
-1.48653e-07
-2.68435e-08
-1.42491e-07
-2.88768e-08
-1.35937e-07
-3.07003e-08
-1.29039e-07
-3.22922e-08
-1.21848e-07
-3.36329e-08
-1.14419e-07
-3.47048e-08
-1.06808e-07
-3.5493e-08
-9.90761e-08
-3.59855e-08
-9.12852e-08
-3.61736e-08
-8.34979e-08
-3.60522e-08
-7.57775e-08
-3.56199e-08
-6.81869e-08
-3.48793e-08
-6.07874e-08
-3.38372e-08
-5.36387e-08
-3.25048e-08
-4.67969e-08
-3.08975e-08
-4.03145e-08
-2.90353e-08
-3.42393e-08
-2.69425e-08
-2.8613e-08
-2.46483e-08
-2.34711e-08
-2.21863e-08
-1.88413e-08
-1.95947e-08
-1.47434e-08
-1.6917e-08
-1.11878e-08
-1.42015e-08
-8.17526e-09
-1.15022e-08
-5.69587e-09
-8.87903e-09
-3.72876e-09
-6.39886e-09
-2.24142e-09
-4.13598e-09
-1.18927e-09
-2.17347e-09
-5.15341e-10
-6.04528e-10
-1.49889e-10
4.66295e-10
-1.01766e-11
9.21272e-10
6.18851e-10
-3.28032e-10
6.42307e-10
-1.30396e-09
2.73734e-09
-2.92036e-09
5.37299e-09
-5.16673e-09
8.34426e-09
-8.02753e-09
1.14946e-08
-1.14816e-08
1.46991e-08
-1.55024e-08
1.78605e-08
-2.00581e-08
2.09052e-08
-2.51128e-08
2.37792e-08
-3.06272e-08
2.64446e-08
-3.65595e-08
2.88759e-08
-4.2866e-08
3.10577e-08
-4.95021e-08
3.29823e-08
-5.64229e-08
3.46477e-08
-6.35834e-08
3.60556e-08
-7.0939e-08
3.72109e-08
-7.84457e-08
3.81199e-08
-8.60605e-08
3.87896e-08
-9.37409e-08
3.92273e-08
-1.01445e-07
3.94402e-08
-1.09133e-07
3.94346e-08
-1.16765e-07
3.92161e-08
-1.24301e-07
3.87895e-08
-1.31702e-07
3.81589e-08
-1.3893e-07
3.73273e-08
-1.45948e-07
3.62974e-08
-1.52718e-07
3.50714e-08
-1.59204e-07
3.36512e-08
-1.65369e-07
3.2039e-08
-1.71178e-07
3.0237e-08
-1.76596e-07
2.82484e-08
-1.81589e-07
2.60769e-08
-1.86124e-07
2.37274e-08
-1.9017e-07
2.12062e-08
-1.93697e-07
1.8521e-08
-1.96678e-07
1.56814e-08
-1.99086e-07
1.26986e-08
-2.00899e-07
9.58604e-09
-2.02098e-07
6.35902e-09
-2.02664e-07
3.03501e-09
-2.02586e-07
-3.66471e-10
-2.01853e-07
-3.82387e-09
-2.00462e-07
-7.31369e-09
-1.98411e-07
-1.08107e-08
-1.95705e-07
-1.4288e-08
-1.92353e-07
-1.77174e-08
-1.8837e-07
-2.10696e-08
-1.83775e-07
-2.43144e-08
-1.78594e-07
-2.74215e-08
-1.72857e-07
-3.03603e-08
-1.666e-07
-3.31006e-08
-1.59863e-07
-3.56133e-08
-1.52693e-07
-3.78702e-08
-1.4514e-07
-3.98451e-08
-1.37259e-07
-4.15141e-08
-1.29108e-07
-4.28558e-08
-1.20749e-07
-4.3852e-08
-1.12247e-07
-4.4488e-08
-1.03667e-07
-4.47531e-08
-9.50786e-08
-4.46408e-08
-8.65492e-08
-4.41493e-08
-7.81469e-08
-4.32816e-08
-6.99384e-08
-4.20457e-08
-6.19883e-08
-4.04549e-08
-5.4358e-08
-3.85278e-08
-4.71048e-08
-3.62884e-08
-4.02813e-08
-3.37661e-08
-3.39337e-08
-3.09959e-08
-2.81016e-08
-2.80183e-08
-2.28168e-08
-2.48796e-08
-1.81024e-08
-2.16314e-08
-1.39721e-08
-1.83318e-08
-1.04296e-08
-1.50447e-08
-7.46783e-09
-1.18408e-08
-5.06863e-09
-8.79806e-09
-3.20221e-09
-6.00239e-09
-1.82706e-09
-3.54862e-09
-8.89811e-10
-1.54177e-09
-3.25442e-10
-9.80738e-11
-5.76962e-11
6.53527e-10
5.61154e-10
-4.00254e-10
1.04256e-09
-1.56932e-09
3.9064e-09
-3.4791e-09
7.28277e-09
-6.10149e-09
1.09667e-08
-9.40627e-09
1.47994e-08
-1.33602e-08
1.8653e-08
-1.79268e-08
2.24271e-08
-2.30664e-08
2.60447e-08
-2.87365e-08
2.94493e-08
-3.48923e-08
3.26004e-08
-4.14875e-08
3.54711e-08
-4.84746e-08
3.80448e-08
-5.58056e-08
4.03133e-08
-6.34323e-08
4.22744e-08
-7.1307e-08
4.39303e-08
-7.93822e-08
4.52862e-08
-8.76114e-08
4.6349e-08
-9.59486e-08
4.71268e-08
-1.04349e-07
4.76276e-08
-1.12768e-07
4.78594e-08
-1.21163e-07
4.78292e-08
-1.2949e-07
4.75435e-08
-1.37708e-07
4.70078e-08
-1.45776e-07
4.62265e-08
-1.53652e-07
4.52033e-08
-1.61296e-07
4.39414e-08
-1.68668e-07
4.24434e-08
-1.75729e-07
4.07119e-08
-1.82439e-07
3.87495e-08
-1.88762e-07
3.65593e-08
-1.94658e-07
3.4145e-08
-2.00093e-07
3.15117e-08
-2.05031e-07
2.86653e-08
-2.09439e-07
2.56138e-08
-2.13284e-07
2.23665e-08
-2.16538e-07
1.89351e-08
-2.19173e-07
1.53334e-08
-2.21164e-07
1.15774e-08
-2.2249e-07
7.68553e-09
-2.23134e-07
3.67881e-09
-2.23081e-07
-4.1948e-10
-2.22321e-07
-4.58363e-09
-2.20849e-07
-8.78568e-09
-2.18665e-07
-1.29956e-08
-2.15771e-07
-1.71815e-08
-2.12178e-07
-2.13099e-08
-2.07902e-07
-2.53461e-08
-2.02962e-07
-2.92543e-08
-1.97385e-07
-3.29984e-08
-1.91203e-07
-3.65423e-08
-1.84454e-07
-3.98503e-08
-1.77179e-07
-4.28875e-08
-1.69429e-07
-4.56206e-08
-1.61255e-07
-4.80186e-08
-1.52717e-07
-5.00527e-08
-1.43875e-07
-5.16974e-08
-1.34796e-07
-5.2931e-08
-1.25548e-07
-5.37358e-08
-1.16203e-07
-5.40988e-08
-1.06832e-07
-5.40119e-08
-9.75083e-08
-5.34727e-08
-8.83055e-08
-5.24843e-08
-7.92953e-08
-5.1056e-08
-7.05473e-08
-4.9203e-08
-6.21279e-08
-4.69471e-08
-5.40998e-08
-4.43165e-08
-4.65202e-08
-4.13457e-08
-3.94402e-08
-3.80759e-08
-3.2904e-08
-3.45545e-08
-2.69476e-08
-3.08359e-08
-2.15983e-08
-2.69808e-08
-1.68736e-08
-2.30565e-08
-1.27809e-08
-1.91374e-08
-9.31658e-09
-1.53051e-08
-6.46597e-09
-1.16487e-08
-4.20284e-09
-8.26553e-09
-2.48949e-09
-5.26197e-09
-1.27697e-09
-2.75429e-09
-5.05554e-10
-8.6949e-10
-1.05749e-10
2.53722e-10
4.55405e-10
-4.70591e-10
1.51315e-09
-1.82951e-09
5.26532e-09
-4.02934e-09
9.4826e-09
-7.02498e-09
1.39623e-08
-1.07716e-08
1.8546e-08
-1.52237e-08
2.31051e-08
-2.03344e-08
2.75378e-08
-2.60555e-08
3.17659e-08
-3.23376e-08
3.57314e-08
-3.91301e-08
3.93929e-08
-4.63817e-08
4.27227e-08
-5.4041e-08
4.57041e-08
-6.20564e-08
4.83287e-08
-7.03766e-08
5.05946e-08
-7.89509e-08
5.25046e-08
-8.77293e-08
5.40646e-08
-9.66627e-08
5.52825e-08
-1.05703e-07
5.61669e-08
-1.14802e-07
5.67271e-08
-1.23914e-07
5.69716e-08
-1.32994e-07
5.69084e-08
-1.41995e-07
5.65447e-08
-1.50873e-07
5.58864e-08
-1.59586e-07
5.49388e-08
-1.68088e-07
5.3706e-08
-1.76339e-07
5.21916e-08
-1.84294e-07
5.03989e-08
-1.91913e-07
4.83308e-08
-1.99154e-07
4.59907e-08
-2.05977e-07
4.33824e-08
-2.12343e-07
4.05106e-08
-2.18212e-07
3.73812e-08
-2.23549e-07
3.40017e-08
-2.28317e-07
3.03816e-08
-2.32482e-07
2.6532e-08
-2.36014e-07
2.2467e-08
-2.38883e-07
1.82027e-08
-2.41064e-07
1.3758e-08
-2.42533e-07
9.15484e-09
-2.43272e-07
4.41758e-09
-2.43265e-07
-4.26448e-10
-2.42502e-07
-5.34721e-09
-2.40975e-07
-1.03121e-08
-2.38685e-07
-1.52861e-08
-2.35634e-07
-2.02321e-08
-2.31833e-07
-2.51111e-08
-2.27296e-07
-2.98827e-08
-2.22045e-07
-3.45053e-08
-2.16107e-07
-3.89368e-08
-2.09514e-07
-4.31351e-08
-2.02306e-07
-4.70586e-08
-1.94527e-07
-5.06666e-08
-1.86227e-07
-5.39202e-08
-1.77463e-07
-5.6783e-08
-1.68294e-07
-5.92212e-08
-1.58787e-07
-6.12049e-08
-1.49009e-07
-6.27083e-08
-1.39035e-07
-6.37104e-08
-1.28938e-07
-6.41956e-08
-1.18796e-07
-6.4154e-08
-1.08686e-07
-6.35822e-08
-9.86874e-08
-6.24833e-08
-8.88758e-08
-6.08675e-08
-7.93266e-08
-5.87522e-08
-7.01116e-08
-5.61622e-08
-6.12985e-08
-5.31296e-08
-5.295e-08
-4.96942e-08
-4.51224e-08
-4.59035e-08
-3.78647e-08
-4.18122e-08
-3.12179e-08
-3.74827e-08
-2.52139e-08
-3.29848e-08
-1.98746e-08
-2.83957e-08
-1.52118e-08
-2.38002e-08
-1.1226e-08
-1.92908e-08
-7.90673e-09
-1.4968e-08
-5.23187e-09
-1.09404e-08
-3.16817e-09
-7.32567e-09
-1.67149e-09
-4.25097e-09
-6.87651e-10
-1.85333e-09
-1.53685e-10
-2.80244e-10
3.0172e-10
-5.38911e-10
2.05206e-09
-2.08351e-09
6.80992e-09
-4.56837e-09
1.19675e-08
-7.9321e-09
1.7326e-08
-1.21156e-08
2.27295e-08
-1.70609e-08
2.80504e-08
-2.27108e-08
3.31877e-08
-2.90083e-08
3.80634e-08
-3.58966e-08
4.26196e-08
-4.3319e-08
4.68153e-08
-5.12192e-08
5.0623e-08
-5.95414e-08
5.40263e-08
-6.82303e-08
5.70176e-08
-7.72316e-08
5.95959e-08
-8.64917e-08
6.17647e-08
-9.59582e-08
6.35311e-08
-1.05579e-07
6.49037e-08
-1.15305e-07
6.58925e-08
-1.25085e-07
6.65075e-08
-1.34872e-07
6.67581e-08
-1.44617e-07
6.66532e-08
-1.54273e-07
6.62006e-08
-1.63793e-07
6.5407e-08
-1.73133e-07
6.42781e-08
-1.82245e-07
6.28186e-08
-1.91086e-07
6.10326e-08
-1.99611e-07
5.89238e-08
-2.07776e-07
5.64958e-08
-2.15538e-07
5.37526e-08
-2.22854e-07
5.06987e-08
-2.29683e-07
4.73398e-08
-2.35985e-07
4.36829e-08
-2.4172e-07
3.9737e-08
-2.46852e-07
3.55129e-08
-2.51344e-07
3.1024e-08
-2.55163e-07
2.62865e-08
-2.58279e-07
2.13191e-08
-2.60665e-07
1.61437e-08
-2.62296e-07
1.07856e-08
-2.63151e-07
5.27275e-09
-2.63214e-07
-3.63309e-10
-2.62473e-07
-6.08814e-09
-2.60921e-07
-1.18643e-08
-2.58555e-07
-1.76518e-08
-2.5538e-07
-2.34079e-08
-2.51403e-07
-2.9088e-08
-2.4664e-07
-3.46458e-08
-2.41111e-07
-4.00335e-08
-2.34845e-07
-4.52029e-08
-2.27875e-07
-5.01056e-08
-2.2024e-07
-5.46937e-08
-2.11986e-07
-5.89203e-08
-2.03166e-07
-6.27406e-08
-1.93836e-07
-6.61123e-08
-1.84061e-07
-6.89965e-08
-1.73908e-07
-7.13581e-08
-1.63449e-07
-7.3167e-08
-1.52761e-07
-7.43986e-08
-1.41922e-07
-7.5034e-08
-1.31015e-07
-7.50614e-08
-1.20121e-07
-7.4476e-08
-1.09324e-07
-7.32806e-08
-9.87053e-08
-7.14861e-08
-8.83459e-08
-6.91117e-08
-7.8323e-08
-6.6185e-08
-6.87101e-08
-6.27425e-08
-5.95754e-08
-5.88289e-08
-5.09808e-08
-5.44981e-08
-4.2981e-08
-4.9812e-08
-3.56224e-08
-4.48414e-08
-2.89419e-08
-3.96652e-08
-2.29668e-08
-3.43708e-08
-1.77137e-08
-2.90534e-08
-1.31879e-08
-2.38166e-08
-9.38348e-09
-1.87724e-08
-6.28324e-09
-1.40406e-08
-3.85867e-09
-9.75024e-09
-2.07067e-09
-6.03896e-09
-8.70502e-10
-3.0535e-09
-2.01235e-10
-9.49511e-10
1.00485e-10
-6.05165e-10
2.65723e-09
-2.33076e-09
8.53551e-09
-5.09445e-09
1.47312e-08
-8.81937e-09
2.10509e-08
-1.34325e-08
2.73426e-08
-1.88638e-08
3.34817e-08
-2.50455e-08
3.93694e-08
-3.19118e-08
4.49296e-08
-3.93982e-08
5.01061e-08
-4.74418e-08
5.48589e-08
-5.59811e-08
5.91622e-08
-6.49557e-08
6.30009e-08
-7.43067e-08
6.63686e-08
-8.39766e-08
6.92657e-08
-9.3909e-08
7.16972e-08
-1.04049e-07
7.36711e-08
-1.14343e-07
7.51976e-08
-1.24738e-07
7.62878e-08
-1.35183e-07
7.69525e-08
-1.45628e-07
7.72025e-08
-1.56022e-07
7.70472e-08
-1.66316e-07
7.64953e-08
-1.76463e-07
7.55541e-08
-1.86415e-07
7.42298e-08
-1.96124e-07
7.25277e-08
-2.05544e-07
7.04523e-08
-2.14628e-07
6.8008e-08
-2.23331e-07
6.51987e-08
-2.31608e-07
6.20291e-08
-2.39413e-07
5.85046e-08
-2.46705e-07
5.46317e-08
-2.53441e-07
5.04186e-08
-2.5958e-07
4.58757e-08
-2.65082e-07
4.10154e-08
-2.69911e-07
3.58531e-08
-2.74032e-07
3.04072e-08
-2.77412e-07
2.46992e-08
-2.80023e-07
1.8754e-08
-2.81837e-07
1.26e-08
-2.82834e-07
6.26924e-09
-2.82994e-07
-2.02751e-10
-2.82305e-07
-6.77699e-09
-2.80758e-07
-1.34112e-08
-2.7835e-07
-2.00599e-08
-2.75083e-07
-2.66751e-08
-2.70965e-07
-3.32062e-08
-2.6601e-07
-3.96006e-08
-2.60239e-07
-4.58045e-08
-2.53679e-07
-5.17631e-08
-2.46363e-07
-5.74213e-08
-2.38332e-07
-6.27246e-08
-2.29633e-07
-6.76198e-08
-2.20318e-07
-7.20555e-08
-2.10447e-07
-7.59833e-08
-2.00085e-07
-7.93584e-08
-1.89303e-07
-8.21404e-08
-1.78175e-07
-8.42944e-08
-1.66782e-07
-8.57914e-08
-1.55207e-07
-8.66093e-08
-1.43535e-07
-8.67334e-08
-1.31854e-07
-8.61573e-08
-1.20251e-07
-8.48831e-08
-1.08815e-07
-8.29222e-08
-9.76318e-08
-8.02953e-08
-8.67841e-08
-7.70327e-08
-7.63519e-08
-7.31747e-08
-6.64095e-08
-6.87714e-08
-5.7025e-08
-6.38826e-08
-4.82591e-08
-5.85778e-08
-4.01644e-08
-5.29362e-08
-3.27836e-08
-4.7046e-08
-2.61498e-08
-4.10046e-08
-2.0285e-08
-3.49182e-08
-1.51999e-08
-2.89017e-08
-1.0894e-08
-2.30783e-08
-7.35506e-09
-1.75796e-08
-4.55962e-09
-1.25457e-08
-2.47372e-09
-8.12486e-09
-1.05383e-09
-4.47339e-09
-2.48393e-10
-1.75495e-09
-1.47908e-10
-6.6934e-10
3.32657e-09
-2.57089e-09
1.04371e-08
-5.60646e-09
1.77667e-08
-9.68439e-09
2.51289e-08
-1.47183e-08
3.23765e-08
-2.06263e-08
3.93897e-08
-2.73303e-08
4.60734e-08
-3.47555e-08
5.23548e-08
-4.28299e-08
5.81805e-08
-5.14842e-08
6.35132e-08
-6.06515e-08
6.83294e-08
-7.02668e-08
7.26163e-08
-8.02677e-08
7.63695e-08
-9.05932e-08
7.95912e-08
-1.01184e-07
8.22883e-08
-1.11984e-07
8.44706e-08
-1.22936e-07
8.61496e-08
-1.33986e-07
8.73378e-08
-1.45081e-07
8.80474e-08
-1.56168e-07
8.82899e-08
-1.67197e-07
8.8076e-08
-1.78116e-07
8.74149e-08
-1.88877e-07
8.63147e-08
-1.99429e-07
8.47821e-08
-2.09725e-07
8.28229e-08
-2.19714e-07
8.04421e-08
-2.29351e-07
7.76445e-08
-2.38587e-07
7.44346e-08
-2.47375e-07
7.08178e-08
-2.55671e-07
6.68001e-08
-2.63428e-07
6.2389e-08
-2.70604e-07
5.75939e-08
-2.77154e-07
5.24262e-08
-2.83039e-07
4.69004e-08
-2.8822e-07
4.10337e-08
-2.92659e-07
3.48467e-08
-2.96323e-07
2.83634e-08
-2.99181e-07
2.16119e-08
-3.01205e-07
1.46239e-08
-3.02371e-07
7.43527e-09
-3.0266e-07
8.56334e-11
-3.02055e-07
-7.38145e-09
-3.00548e-07
-1.49187e-08
-2.98132e-07
-2.24755e-08
-2.94809e-07
-2.99979e-08
-2.90586e-07
-3.74294e-08
-2.85476e-07
-4.47112e-08
-2.79497e-07
-5.17829e-08
-2.72677e-07
-5.85829e-08
-2.65049e-07
-6.50494e-08
-2.56653e-07
-7.11207e-08
-2.47536e-07
-7.67369e-08
-2.37752e-07
-8.18396e-08
-2.27361e-07
-8.63739e-08
-2.16431e-07
-9.02887e-08
-2.05034e-07
-9.35376e-08
-1.93248e-07
-9.60804e-08
-1.81156e-07
-9.78831e-08
-1.68845e-07
-9.89198e-08
-1.56406e-07
-9.91727e-08
-1.4393e-07
-9.86331e-08
-1.31511e-07
-9.7302e-08
-1.19243e-07
-9.51907e-08
-1.07217e-07
-9.23212e-08
-9.55234e-08
-8.87263e-08
-8.42483e-08
-8.44498e-08
-7.34727e-08
-7.95469e-08
-6.32716e-08
-7.40837e-08
-5.37125e-08
-6.81369e-08
-4.48545e-08
-6.17942e-08
-3.6747e-08
-5.51534e-08
-2.94294e-08
-4.83222e-08
-2.29299e-08
-4.14177e-08
-1.72653e-08
-3.45664e-08
-1.24404e-08
-2.79031e-08
-8.4487e-09
-2.15713e-08
-5.27197e-09
-1.57224e-08
-2.88131e-09
-1.05155e-08
-1.23806e-09
-6.11664e-09
-2.95333e-10
-2.69768e-09
-4.43241e-10
-7.31435e-10
4.058e-09
-2.80368e-09
1.25093e-08
-6.10355e-09
2.10666e-08
-1.05253e-08
2.95507e-08
-1.59699e-08
3.7821e-08
-2.23437e-08
4.57636e-08
-2.95586e-08
5.32884e-08
-3.7531e-08
6.03272e-08
-4.61815e-08
6.68309e-08
-5.54342e-08
7.2766e-08
-6.52168e-08
7.81121e-08
-7.546e-08
8.28595e-08
-8.60973e-08
8.70068e-08
-9.70648e-08
9.05587e-08
-1.08301e-07
9.35242e-08
-1.19745e-07
9.59153e-08
-1.31341e-07
9.77454e-08
-1.43032e-07
9.90284e-08
-1.54762e-07
9.97779e-08
-1.66479e-07
1.00007e-07
-1.7813e-07
9.97266e-08
-1.89662e-07
9.89474e-08
-2.01025e-07
9.76778e-08
-2.12168e-07
9.59252e-08
-2.23041e-07
9.3696e-08
-2.33595e-07
9.09955e-08
-2.43779e-07
8.7829e-08
-2.53546e-07
8.42016e-08
-2.62848e-07
8.0119e-08
-2.71636e-07