/*--------------------------------*- C++ -*----------------------------------*\
| =========                 |                                                 |
| \\      /  F ield         | OpenFOAM: The Open Source CFD Toolbox           |
|  \\    /   O peration     | Version:  2.1.1                                 |
|   \\  /    A nd           | Web:      www.OpenFOAM.org                      |
|    \\/     M anipulation  |                                                 |
\*---------------------------------------------------------------------------*/
FoamFile
{
    version     2.0;
    format      ascii;
    class       surfaceScalarField;
    location    "2";
    object      phi;
}
// * * * * * * * * * * * * * * * * * * * * * * * * * * * * * * * * * * * * * //

dimensions      [0 3 -1 0 0 0 0];

internalField   nonuniform List<scalar> 
12960
(
5.36608e-11
-5.36708e-11
1.49434e-10
-9.57736e-11
2.28447e-10
-7.90122e-11
2.58334e-10
-2.98876e-11
2.24443e-10
3.38912e-11
1.21763e-10
1.0268e-10
-4.92772e-11
1.7104e-10
-2.85292e-10
2.36015e-10
-5.8132e-10
2.96027e-10
-9.31624e-10
3.50304e-10
-1.3302e-09
3.98575e-10
-1.77106e-09
4.40861e-10
-2.24842e-09
4.7736e-10
-2.75678e-09
5.08365e-10
-3.291e-09
5.3422e-10
-3.84629e-09
5.55281e-10
-4.41818e-09
5.71898e-10
-5.00258e-09
5.84394e-10
-5.59563e-09
5.93057e-10
-6.19377e-09
5.98137e-10
-6.79361e-09
5.99839e-10
-7.39193e-09
5.98324e-10
-7.98565e-09
5.93713e-10
-8.57174e-09
5.86089e-10
-9.14724e-09
5.755e-10
-9.7092e-09
5.61967e-10
-1.02547e-08
5.45488e-10
-1.07807e-08
5.26047e-10
-1.12844e-08
5.03619e-10
-1.17625e-08
4.78175e-10
-1.22122e-08
4.49693e-10
-1.26304e-08
4.18162e-10
-1.3014e-08
3.83589e-10
-1.336e-08
3.46004e-10
-1.36654e-08
3.05467e-10
-1.39275e-08
2.62071e-10
-1.41435e-08
2.1595e-10
-1.43107e-08
1.67275e-10
-1.4427e-08
1.16267e-10
-1.44902e-08
6.31893e-11
-1.44986e-08
8.35449e-12
-1.44507e-08
-4.78784e-11
-1.43456e-08
-1.05104e-10
-1.41827e-08
-1.62873e-10
-1.3962e-08
-2.20697e-10
-1.36839e-08
-2.78051e-10
-1.33496e-08
-3.34378e-10
-1.29605e-08
-3.89102e-10
-1.25188e-08
-4.41626e-10
-1.20275e-08
-4.91351e-10
-1.14898e-08
-5.37677e-10
-1.09098e-08
-5.80016e-10
-1.0292e-08
-6.17806e-10
-9.64148e-09
-6.50514e-10
-8.96383e-09
-6.77653e-10
-8.26504e-09
-6.98788e-10
-7.55149e-09
-7.13548e-10
-6.82986e-09
-7.21634e-10
-6.10703e-09
-7.22825e-10
-5.39005e-09
-7.16987e-10
-4.68597e-09
-7.04076e-10
-4.00183e-09
-6.84141e-10
-3.3445e-09
-6.5733e-10
-2.72061e-09
-6.23884e-10
-2.13647e-09
-5.84145e-10
-1.59792e-09
-5.38549e-10
-1.1103e-09
-4.87625e-10
-6.78296e-10
-4.32e-10
-3.059e-10
-3.72395e-10
3.74376e-12
-3.09644e-10
2.48525e-10
-2.44781e-10
4.27295e-10
-1.7877e-10
5.40301e-10
-1.13005e-10
5.89396e-10
-4.9095e-11
5.78476e-10
1.09195e-11
5.14202e-10
6.42745e-11
4.07051e-10
1.07151e-10
2.72948e-10
1.34103e-10
1.3584e-10
1.37109e-10
3.13829e-11
1.04457e-10
3.13829e-11
9.62716e-11
-1.49942e-10
2.22667e-10
-2.22169e-10
2.8549e-10
-1.41835e-10
2.27336e-10
2.82662e-11
1.55111e-11
2.45716e-10
-3.6475e-10
4.82941e-10
-9.16275e-10
7.22566e-10
-1.63405e-09
9.53791e-10
-2.50826e-09
1.17024e-09
-3.52629e-09
1.36834e-09
-4.67406e-09
1.54634e-09
-5.9369e-09
1.7037e-09
-7.30013e-09
1.8406e-09
-8.74946e-09
1.95769e-09
-1.02712e-08
2.05592e-09
-1.18522e-08
2.13633e-09
-1.34803e-08
2.2e-09
-1.51439e-08
2.24798e-09
-1.68321e-08
2.28122e-09
-1.85345e-08
2.30057e-09
-2.02414e-08
2.30672e-09
-2.19433e-08
2.30026e-09
-2.36312e-08
2.28163e-09
-2.52963e-08
2.25113e-09
-2.69298e-08
2.20898e-09
-2.85231e-08
2.15529e-09
-3.00677e-08
2.0901e-09
-3.1555e-08
2.01339e-09
-3.29766e-08
1.92513e-09
-3.43237e-08
1.82528e-09
-3.55878e-08
1.71383e-09
-3.67604e-08
1.59079e-09
-3.78331e-08
1.45627e-09
-3.87976e-08
1.31045e-09
-3.96457e-08
1.15363e-09
-4.03698e-08
9.86205e-10
-4.09626e-08
8.08746e-10
-4.14173e-08
6.21956e-10
-4.17278e-08
4.26704e-10
-4.18886e-08
2.24023e-10
-4.18954e-08
1.51182e-11
-4.17446e-08
-1.98641e-10
-4.1434e-08
-4.15719e-10
-4.09624e-08
-6.34429e-10
-4.03302e-08
-8.52942e-10
-3.95389e-08
-1.06931e-09
-3.85918e-08
-1.28147e-09
-3.74936e-08
-1.48729e-09
-3.62507e-08
-1.68459e-09
-3.48709e-08
-1.87117e-09
-3.33637e-08
-2.04484e-09
-3.17402e-08
-2.20347e-09
-3.00131e-08
-2.34499e-09
-2.81961e-08
-2.46749e-09
-2.63045e-08
-2.56921e-09
-2.43547e-08
-2.64857e-09
-2.2364e-08
-2.70424e-09
-2.03505e-08
-2.73516e-09
-1.83328e-08
-2.74053e-09
-1.63299e-08
-2.7199e-09
-1.43609e-08
-2.67312e-09
-1.24446e-08
-2.6004e-09
-1.05996e-08
-2.50232e-09
-8.84367e-09
-2.37981e-09
-7.19367e-09
-2.23415e-09
-5.66521e-09
-2.067e-09
-4.27245e-09
-1.88039e-09
-3.02774e-09
-1.67671e-09
-1.94138e-09
-1.45876e-09
-1.02128e-09
-1.22974e-09
-2.72701e-10
-9.93364e-10
3.02409e-10
-7.5388e-10
7.05731e-10
-5.16327e-10
9.43381e-10
-2.86745e-10
1.02688e-09
-7.25807e-11
9.74427e-10
1.16729e-10
8.12598e-10
2.68979e-10
5.78433e-10
3.68268e-10
3.21446e-10
3.94096e-10
1.03996e-10
3.21906e-10
1.35379e-10
8.05017e-11
-2.30444e-10
1.44138e-10
-2.85806e-10
8.60809e-11
-8.37777e-11
-1.59602e-10
2.73949e-10
-6.3283e-10
7.18943e-10
-1.35337e-09
1.20349e-09
-2.32609e-09
1.69528e-09
-3.54547e-09
2.17317e-09
-4.999e-09
2.62377e-09
-6.66967e-09
3.03901e-09
-8.53782e-09
3.41449e-09
-1.05824e-08
3.7483e-09
-1.2782e-08
4.04016e-09
-1.51152e-08
4.2909e-09
-1.75613e-08
4.502e-09
-2.01002e-08
4.67529e-09
-2.2713e-08
4.81274e-09
-2.53813e-08
4.91632e-09
-2.8088e-08
4.98786e-09
-3.08164e-08
5.02901e-09
-3.35509e-08
5.04118e-09
-3.62761e-08
5.02553e-09
-3.89775e-08
4.98297e-09
-4.16405e-08
4.91419e-09
-4.42512e-08
4.81963e-09
-4.67955e-08
4.69957e-09
-4.92595e-08
4.55418e-09
-5.16296e-08
4.3835e-09
-5.38921e-08
4.18754e-09
-5.60331e-08
3.9663e-09
-5.80391e-08
3.71987e-09
-5.98967e-08
3.44839e-09
-6.15926e-08
3.15218e-09
-6.31139e-08
2.83174e-09
-6.44481e-08
2.4878e-09
-6.55832e-08
2.12135e-09
-6.65082e-08
1.73368e-09
-6.72126e-08
1.32637e-09
-6.76873e-08
9.0138e-10
-6.79242e-08
4.60975e-10
-6.79169e-08
7.78819e-12
-6.76603e-08
-4.5521e-10
-6.71513e-08
-9.24707e-10
-6.63887e-08
-1.39708e-09
-6.53732e-08
-1.86843e-09
-6.41079e-08
-2.3346e-09
-6.25981e-08
-2.79123e-09
-6.08516e-08
-3.2338e-09
-5.88785e-08
-3.65771e-09
-5.66913e-08
-4.05833e-09
-5.43051e-08
-4.43105e-09
-5.17372e-08
-4.77139e-09
-4.90071e-08
-5.07506e-09
-4.61366e-08
-5.33804e-09
-4.31492e-08
-5.55664e-09
-4.00701e-08
-5.7276e-09
-3.69262e-08
-5.84815e-09
-3.37453e-08
-5.91606e-09
-3.05562e-08
-5.92972e-09
-2.73879e-08
-5.88819e-09
-2.42698e-08
-5.79122e-09
-2.12309e-08
-5.63928e-09
-1.82996e-08
-5.43362e-09
-1.55031e-08
-5.17625e-09
-1.28673e-08
-4.86996e-09
-1.0416e-08
-4.51831e-09
-8.17072e-09
-4.12568e-09
-6.15019e-09
-3.69725e-09
-4.36989e-09
-3.23905e-09
-2.8416e-09
-2.75803e-09
-1.57278e-09
-2.26218e-09
-5.65985e-10
-1.76068e-09
1.81904e-10
-1.26422e-09
6.80583e-10
-7.85424e-10
9.47443e-10
-3.39441e-10
1.00895e-09
5.52193e-11
9.02203e-10
3.75729e-10
6.76657e-10
5.93814e-10
3.95566e-10
6.75186e-10
1.36878e-10
5.80595e-10
2.72257e-10
3.19114e-11
-2.62356e-10
-2.66065e-11
-2.27288e-10
-2.75111e-10
1.64727e-10
-7.78255e-10
7.77094e-10
-1.57578e-09
1.51647e-09
-2.68768e-09
2.31538e-09
-4.11862e-09
3.12622e-09
-5.86194e-09
3.91648e-09
-7.90284e-09
4.66467e-09
-1.0221e-08
5.35718e-09
-1.27926e-08
5.98608e-09
-1.55917e-08
6.54742e-09
-1.85916e-08
7.04001e-09
-2.17652e-08
7.46451e-09
-2.5086e-08
7.8228e-09
-2.85281e-08
8.11742e-09
-3.20666e-08
8.35124e-09
-3.56775e-08
8.52722e-09
-3.93378e-08
8.64816e-09
-4.30254e-08
8.71663e-09
-4.67191e-08
8.73487e-09
-5.03983e-08
8.70472e-09
-5.4043e-08
8.62768e-09
-5.76337e-08
8.50488e-09
-6.11512e-08
8.33711e-09
-6.45765e-08
8.12492e-09
-6.7891e-08
7.86863e-09
-7.10759e-08
7.56843e-09
-7.41128e-08
7.22446e-09
-7.69834e-08
6.83687e-09
-7.96694e-08
6.40591e-09
-8.21531e-08
5.93201e-09
-8.44167e-08
5.41585e-09
-8.64434e-08
4.85845e-09
-8.82168e-08
4.26118e-09
-8.97214e-08
3.62588e-09
-9.09425e-08
2.95486e-09
-9.18671e-08
2.25098e-09
-9.24834e-08
1.51762e-09
-9.27812e-08
7.58753e-10
-9.27523e-08
-2.10686e-11
-9.23908e-08
-8.16745e-10
-9.16928e-08
-1.62262e-09
-9.06574e-08
-2.43252e-09
-8.9286e-08
-3.23984e-09
-8.75831e-08
-4.03754e-09
-8.5556e-08
-4.81827e-09
-8.32154e-08
-5.57443e-09
-8.05748e-08
-6.29831e-09
-7.7651e-08
-6.98212e-09
-7.44639e-08
-7.61818e-09
-7.10363e-08
-8.199e-09
-6.73939e-08
-8.71742e-09
-6.35652e-08
-9.16673e-09
-5.9581e-08
-9.5408e-09
-5.54744e-08
-9.83422e-09
-5.12802e-08
-1.00424e-08
-4.70347e-08
-1.01616e-08
-4.27753e-08
-1.01892e-08
-3.85399e-08
-1.01236e-08
-3.43665e-08
-9.96452e-09
-3.02931e-08
-9.71277e-09
-2.63562e-08
-9.37047e-09
-2.25914e-08
-8.94107e-09
-1.9032e-08
-8.42931e-09
-1.57091e-08
-7.84129e-09
-1.26503e-08
-7.18445e-09
-9.87989e-09
-6.46764e-09
-7.41781e-09
-5.70113e-09
-5.27908e-09
-4.89676e-09
-3.4732e-09
-4.06806e-09
-2.00334e-09
-3.23054e-09
-8.65536e-10
-2.40202e-09
-4.77213e-11
-1.60324e-09
4.71378e-10
-8.58541e-10
7.23415e-10
-1.96818e-10
7.51803e-10
3.47341e-10
6.13107e-10
7.32509e-10
3.78529e-10
9.09765e-10
1.36092e-10
8.23032e-10
4.08349e-10
-3.2902e-11
-2.29454e-10
-2.50715e-10
-9.47473e-12
-7.36771e-10
6.50783e-10
-1.54696e-09
1.58728e-09
-2.71552e-09
2.68503e-09
-4.2589e-09
3.85877e-09
-6.17916e-09
5.04648e-09
-8.4672e-09
6.20452e-09
-1.11056e-08
7.30306e-09
-1.4071e-08
8.32255e-09
-1.73359e-08
9.25106e-09
-2.08707e-08
1.00821e-08
-2.4644e-08
1.08133e-08
-2.86243e-08
1.14448e-08
-3.27802e-08
1.19787e-08
-3.70809e-08
1.24181e-08
-4.14964e-08
1.27667e-08
-4.59977e-08
1.30285e-08
-5.05567e-08
1.32072e-08
-5.51463e-08
1.33063e-08
-5.97404e-08
1.3329e-08
-6.43136e-08
1.32778e-08
-6.88409e-08
1.3155e-08
-7.32982e-08
1.29621e-08
-7.76615e-08
1.27004e-08
-8.19073e-08
1.23708e-08
-8.60124e-08
1.19737e-08
-8.99536e-08
1.15096e-08
-9.37081e-08
1.09789e-08
-9.72532e-08
1.0382e-08
-1.00567e-07
9.71945e-09
-1.03627e-07
8.99205e-09
-1.06412e-07
8.20105e-09
-1.08902e-07
7.34815e-09
-1.11076e-07
6.43565e-09
-1.12917e-07
5.46645e-09
-1.14406e-07
4.44423e-09
-1.15529e-07
3.37339e-09
-1.1627e-07
2.25918e-09
-1.16619e-07
1.10766e-09
-1.16566e-07
-7.42783e-11
-1.16104e-07
-1.27891e-09
-1.15228e-07
-2.49773e-09
-1.1394e-07
-3.7215e-09
-1.12239e-07
-4.94032e-09
-1.10133e-07
-6.14373e-09
-1.0763e-07
-7.32078e-09
-1.04745e-07
-8.46021e-09
-1.01492e-07
-9.55058e-09
-9.7894e-08
-1.05804e-08
-9.39739e-08
-1.15383e-08
-8.97597e-08
-1.24132e-08
-8.52825e-08
-1.31946e-08
-8.05766e-08
-1.38726e-08
-7.56792e-08
-1.44382e-08
-7.063e-08
-1.48834e-08
-6.54709e-08
-1.52015e-08
-6.02455e-08
-1.5387e-08
-5.49987e-08
-1.5436e-08
-4.9776e-08
-1.53463e-08
-4.4623e-08
-1.51174e-08
-3.95852e-08
-1.47506e-08
-3.47065e-08
-1.42491e-08
-3.00296e-08
-1.3618e-08
-2.55944e-08
-1.28645e-08
-2.1438e-08
-1.19976e-08
-1.75939e-08
-1.10286e-08
-1.40911e-08
-9.9705e-09
-1.09534e-08
-8.83884e-09
-8.19891e-09
-7.65121e-09
-5.83926e-09
-6.42772e-09
-3.87856e-09
-5.19123e-09
-2.31277e-09
-3.96781e-09
-1.12868e-09
-2.78734e-09
-3.02949e-10
-1.68427e-09
1.98895e-10
-6.98661e-10
4.23586e-10
1.2265e-10
4.3133e-10
7.24765e-10
2.97301e-10
1.04379e-09
1.14167e-10
1.00617e-09
5.22515e-10
-1.05265e-10
-1.24189e-10
-5.03762e-10
3.89023e-10
-1.25746e-09
1.40448e-09
-2.40835e-09
2.73817e-09
-3.98131e-09
4.25799e-09
-5.9862e-09
5.86365e-09
-8.42024e-09
7.48052e-09
-1.12705e-08
9.05478e-09
-1.45161e-08
1.05487e-08
-1.81305e-08
1.19369e-08
-2.20829e-08
1.32034e-08
-2.63398e-08
1.43391e-08
-3.08663e-08
1.53399e-08
-3.56271e-08
1.62055e-08
-4.05864e-08
1.6938e-08
-4.57092e-08
1.75409e-08
-5.09612e-08
1.80188e-08
-5.63091e-08
1.83763e-08
-6.17203e-08
1.86184e-08
-6.71633e-08
1.87493e-08
-7.26076e-08
1.87732e-08
-7.80231e-08
1.86934e-08
-8.33808e-08
1.85128e-08
-8.86521e-08
1.82334e-08
-9.38088e-08
1.78571e-08
-9.88231e-08
1.73851e-08
-1.03668e-07
1.68182e-08
-1.08315e-07
1.61572e-08
-1.12739e-07
1.54027e-08
-1.16913e-07
1.45555e-08
-1.2081e-07
1.36167e-08
-1.24405e-07
1.25875e-08
-1.27674e-07
1.147e-08
-1.30593e-07
1.02668e-08
-1.33138e-07
8.98114e-09
-1.35289e-07
7.61745e-09
-1.37026e-07
6.18096e-09
-1.38331e-07
4.67797e-09
-1.39187e-07
3.1159e-09
-1.39583e-07
1.50327e-09
-1.39507e-07
-1.50272e-10
-1.38952e-07
-1.83397e-09
-1.37914e-07
-3.53602e-09
-1.36391e-07
-5.24365e-09
-1.34389e-07
-6.94321e-09
-1.31912e-07
-8.62029e-09
-1.28973e-07
-1.02599e-08
-1.25587e-07
-1.18465e-08
-1.21773e-07
-1.33645e-08
-1.17555e-07
-1.47982e-08
-1.12961e-07
-1.6132e-08
-1.08023e-07
-1.73509e-08
-1.02777e-07
-1.84405e-08
-9.72627e-08
-1.93873e-08
-9.15219e-08
-2.0179e-08
-8.56007e-08
-2.08047e-08
-7.95469e-08
-2.12552e-08
-7.34106e-08
-2.15232e-08
-6.72433e-08
-2.16034e-08
-6.1097e-08
-2.14926e-08
-5.50241e-08
-2.11902e-08
-4.90767e-08
-2.06981e-08
-4.33052e-08
-2.00206e-08
-3.77585e-08
-1.91648e-08
-3.24826e-08
-1.81404e-08
-2.75201e-08
-1.69601e-08
-2.29096e-08
-1.56391e-08
-1.86843e-08
-1.41958e-08
-1.48721e-08
-1.2651e-08
-1.14941e-08
-1.10292e-08
-8.56413e-09
-9.35769e-09
-6.08783e-09
-7.66752e-09
-4.06187e-09
-5.99378e-09
-2.47304e-09
-4.37616e-09
-1.29747e-09
-2.85984e-09
-4.99724e-10
-1.4964e-09
-3.19704e-11
-3.45103e-10
1.67067e-10
5.25727e-10
1.73327e-10
1.03754e-09
7.94621e-11
1.10003e-09
6.01977e-10
-1.80455e-10
5.62659e-11
-7.7093e-10
9.79498e-10
-1.8099e-09
2.44345e-09
-3.32287e-09
4.25115e-09
-5.32264e-09
6.25776e-09
-7.81014e-09
8.35115e-09
-1.07759e-08
1.04463e-08
-1.42018e-08
1.24806e-08
-1.80626e-08
1.44095e-08
-2.2328e-08
1.62023e-08
-2.69636e-08
1.7839e-08
-3.19327e-08
1.93081e-08
-3.71967e-08
2.0604e-08
-4.27168e-08
2.17256e-08
-4.84537e-08
2.26749e-08
-5.43688e-08
2.3456e-08
-6.04238e-08
2.40738e-08
-6.65815e-08
2.45341e-08
-7.28057e-08
2.48425e-08
-7.90607e-08
2.50044e-08
-8.53122e-08
2.50246e-08
-9.15262e-08
2.49074e-08
-9.76697e-08
2.46562e-08
-1.0371e-07
2.42738e-08
-1.09615e-07
2.37624e-08
-1.15354e-07
2.31237e-08
-1.20895e-07
2.23589e-08
-1.26207e-07
2.14692e-08
-1.3126e-07
2.04555e-08
-1.36023e-07
1.93192e-08
-1.40468e-07
1.80618e-08
-1.44566e-07
1.66854e-08
-1.48289e-07
1.51929e-08
-1.5161e-07
1.35878e-08
-1.54504e-07
1.1875e-08
-1.56947e-07
1.00604e-08
-1.58917e-07
8.15095e-09
-1.60394e-07
6.15528e-09
-1.61362e-07
4.08323e-09
-1.61805e-07
1.94612e-09
-1.61711e-07
-2.43287e-10
-1.61075e-07
-2.47085e-09
-1.5989e-07
-4.7211e-09
-1.58156e-07
-6.9773e-09
-1.55877e-07
-9.22164e-09
-1.53062e-07
-1.14353e-08
-1.49723e-07
-1.35989e-08
-1.45878e-07
-1.56922e-08
-1.41547e-07
-1.76949e-08
-1.36759e-07
-1.95868e-08
-1.31543e-07
-2.13475e-08
-1.25937e-07
-2.29577e-08
-1.19978e-07
-2.43987e-08
-1.13713e-07
-2.56531e-08
-1.07187e-07
-2.67048e-08
-1.00451e-07
-2.754e-08
-9.35601e-08
-2.81465e-08
-8.65684e-08
-2.85149e-08
-7.95334e-08
-2.86383e-08
-7.25134e-08
-2.85127e-08
-6.55665e-08
-2.81371e-08
-5.87508e-08
-2.75138e-08
-5.21227e-08
-2.66487e-08
-4.57367e-08
-2.55508e-08
-3.96444e-08
-2.42328e-08
-3.38934e-08
-2.2711e-08
-2.85272e-08
-2.10054e-08
-2.35833e-08
-1.91396e-08
-1.90934e-08
-1.7141e-08
-1.50818e-08
-1.50408e-08
-1.15649e-08
-1.28745e-08
-8.55054e-09
-1.06819e-08
-6.03679e-09
-8.50753e-09
-4.01152e-09
-6.40143e-09
-2.45158e-09
-4.41979e-09
-1.32209e-09
-2.62589e-09
-5.75824e-10
-1.09137e-09
-1.52475e-10
1.02379e-10
2.21566e-11
8.62904e-10
3.73602e-11
1.08483e-09
6.39338e-10
-2.56042e-10
3.12308e-10
-1.04317e-09
1.76662e-09
-2.37652e-09
3.7768e-09
-4.26382e-09
6.13845e-09
-6.70412e-09
8.69806e-09
-9.6878e-09
1.13348e-08
-1.31972e-08
1.39557e-08
-1.72078e-08
1.64912e-08
-2.16892e-08
1.88909e-08
-2.66066e-08
2.11197e-08
-3.19219e-08
2.31543e-08
-3.75948e-08
2.49809e-08
-4.35834e-08
2.65926e-08
-4.98455e-08
2.79877e-08
-5.63387e-08
2.91681e-08
-6.30209e-08
3.01382e-08
-6.98507e-08
3.09036e-08
-7.67874e-08
3.14707e-08
-8.37912e-08
3.18463e-08
-9.08232e-08
3.20364e-08
-9.78454e-08
3.20468e-08
-1.0482e-07
3.18825e-08
-1.11712e-07
3.15475e-08
-1.18483e-07
3.10453e-08
-1.25099e-07
3.03786e-08
-1.31525e-07
2.95495e-08
-1.37726e-07
2.85598e-08
-1.43668e-07
2.74109e-08
-1.49317e-07
2.61044e-08
-1.5464e-07
2.46422e-08
-1.59604e-07
2.30264e-08
-1.64179e-07
2.126e-08
-1.68333e-07
1.93469e-08
-1.72037e-07
1.7292e-08
-1.75264e-07
1.51016e-08
-1.77987e-07
1.27833e-08
-1.80182e-07
1.03464e-08
-1.81828e-07
7.80169e-09
-1.82907e-07
5.16193e-09
-1.83402e-07
2.44147e-09
-1.83302e-07
-3.43551e-10
-1.82598e-07
-3.17526e-09
-1.81285e-07
-6.03417e-09
-1.79363e-07
-8.89927e-09
-1.76836e-07
-1.17482e-08
-1.73714e-07
-1.45575e-08
-1.7001e-07
-1.73028e-08
-1.65743e-07
-1.99589e-08
-1.60938e-07
-2.25005e-08
-1.55622e-07
-2.49021e-08
-1.49831e-07
-2.71388e-08
-1.43603e-07
-2.91862e-08
-1.36981e-07
-3.10209e-08
-1.30012e-07
-3.26213e-08
-1.2275e-07
-3.39675e-08
-1.15248e-07
-3.50418e-08
-1.07565e-07
-3.58294e-08
-9.97616e-08
-3.63183e-08
-9.19002e-08
-3.64997e-08
-8.40443e-08
-3.63686e-08
-7.62575e-08
-3.59238e-08
-6.86034e-08
-3.5168e-08
-6.11438e-08
-3.41082e-08
-5.39387e-08
-3.27559e-08
-4.70447e-08
-3.11267e-08
-4.05147e-08
-2.9241e-08
-3.43965e-08
-2.71236e-08
-2.87323e-08
-2.48038e-08
-2.35576e-08
-2.23157e-08
-1.89001e-08
-1.96983e-08
-1.47795e-08
-1.69951e-08
-1.12061e-08
-1.42553e-08
-8.18037e-09
-1.15333e-08
-5.69206e-09
-8.88973e-09
-3.71984e-09
-6.392e-09
-2.23062e-09
-4.11512e-09
-1.17914e-09
-2.14285e-09
-5.07619e-10
-5.6914e-10
-1.45405e-10
5.00689e-10
-8.68433e-12
9.48106e-10
6.30653e-10
-3.30734e-10
6.43042e-10
-1.31518e-09
2.75106e-09
-2.94618e-09
5.40781e-09
-5.21336e-09
8.40563e-09
-8.10118e-09
1.15859e-08
-1.15884e-08
1.4822e-08
-1.56481e-08
1.80154e-08
-2.02483e-08
2.10914e-08
-2.53527e-08
2.39953e-08
-3.09215e-08
2.66885e-08
-3.69124e-08
2.91453e-08
-4.32814e-08
3.13499e-08
-4.99832e-08
3.32945e-08
-5.69725e-08
3.4977e-08
-6.42037e-08
3.63993e-08
-7.16318e-08
3.75662e-08
-7.92123e-08
3.8484e-08
-8.69015e-08
3.916e-08
-9.46567e-08
3.96015e-08
-1.02436e-07
3.98156e-08
-1.10198e-07
3.98088e-08
-1.17902e-07
3.95869e-08
-1.25509e-07
3.91546e-08
-1.3298e-07
3.85159e-08
-1.40275e-07
3.76741e-08
-1.47357e-07
3.66317e-08
-1.54189e-07
3.53911e-08
-1.60732e-07
3.39542e-08
-1.66951e-07
3.2323e-08
-1.72809e-07
3.05002e-08
-1.78271e-07
2.84886e-08
-1.83303e-07
2.62922e-08
-1.87872e-07
2.39161e-08
-1.91947e-07
2.13665e-08
-1.95496e-07
1.86513e-08
-1.98494e-07
1.57804e-08
-2.00912e-07
1.27651e-08
-2.0273e-07
9.61898e-09
-2.03925e-07
6.35771e-09
-2.04483e-07
2.99897e-09
-2.04389e-07
-4.37447e-10
-2.03634e-07
-3.92969e-09
-2.02215e-07
-7.45398e-09
-2.00129e-07
-1.09847e-08
-1.97383e-07
-1.44948e-08
-1.93985e-07
-1.79556e-08
-1.8995e-07
-2.13375e-08
-1.85299e-07
-2.46101e-08
-1.80056e-07
-2.77427e-08
-1.74254e-07
-3.07045e-08
-1.67928e-07
-3.3465e-08
-1.61119e-07
-3.59947e-08
-1.53875e-07
-3.82655e-08
-1.46245e-07
-4.02509e-08
-1.38286e-07
-4.19268e-08
-1.30056e-07
-4.32717e-08
-1.21618e-07
-4.42674e-08
-1.13037e-07
-4.48992e-08
-1.0438e-07
-4.51564e-08
-9.57163e-08
-4.50327e-08
-8.71137e-08
-4.45264e-08
-7.86411e-08
-4.36406e-08
-7.03657e-08
-4.23836e-08
-6.23526e-08
-4.0769e-08
-5.46637e-08
-3.88156e-08
-4.73568e-08
-3.6548e-08
-4.04843e-08
-3.3996e-08
-3.40931e-08
-3.1195e-08
-2.82228e-08
-2.81861e-08
-2.29052e-08
-2.50159e-08
-1.81633e-08
-2.1737e-08
-1.40108e-08
-1.84078e-08
-1.04511e-08
-1.5093e-08
-7.47686e-09
-1.1864e-08
-5.06935e-09
-8.79951e-09
-3.19828e-09
-5.98619e-09
-1.82146e-09
-3.51967e-09
-8.84746e-10
-1.50585e-09
-3.22206e-10
-6.18503e-11
-5.65464e-11
6.82446e-10
5.74107e-10
-4.03863e-10
1.0469e-09
-1.58384e-09
3.93104e-09
-3.51183e-09
7.3358e-09
-6.15963e-09
1.10534e-08
-9.49681e-09
1.49231e-08
-1.34899e-08
1.88151e-08
-1.81019e-08
2.26275e-08
-2.32929e-08
2.62824e-08
-2.90198e-08
2.97222e-08
-3.52374e-08
3.29061e-08
-4.18988e-08
3.58067e-08
-4.8956e-08
3.84071e-08
-5.63604e-08
4.06989e-08
-6.40633e-08
4.268e-08
-7.20164e-08
4.43524e-08
-8.01717e-08
4.57216e-08
-8.84821e-08
4.67944e-08
-9.69012e-08
4.75791e-08
-1.05384e-07
4.80838e-08
-1.13884e-07
4.83164e-08
-1.2236e-07
4.82842e-08
-1.30767e-07
4.79937e-08
-1.39062e-07
4.74504e-08
-1.47205e-07
4.66588e-08
-1.55154e-07
4.56227e-08
-1.62867e-07
4.43452e-08
-1.70305e-07
4.2829e-08
-1.77428e-07
4.10767e-08
-1.84196e-07
3.9091e-08
-1.90571e-07
3.68751e-08
-1.96515e-07
3.44327e-08
-2.01992e-07
3.1769e-08
-2.06966e-07
2.88902e-08
-2.11403e-07
2.58041e-08
-2.15273e-07
2.25206e-08
-2.18544e-07
1.90513e-08
-2.21189e-07
1.54103e-08
-2.23184e-07
1.16139e-08
-2.24507e-07
7.68092e-09
-2.25141e-07
3.6325e-09
-2.2507e-07
-5.0766e-10
-2.24286e-07
-4.71352e-09
-2.22784e-07
-8.95678e-09
-2.20561e-07
-1.3207e-08
-2.17624e-07
-1.7432e-08
-2.13982e-07
-2.15979e-08
-2.0965e-07
-2.56695e-08
-2.04649e-07
-2.96108e-08
-1.99006e-07
-3.33854e-08
-1.92754e-07
-3.69567e-08
-1.8593e-07
-4.02888e-08
-1.78579e-07
-4.33464e-08
-1.70748e-07
-4.60963e-08
-1.62492e-07
-4.85069e-08
-1.53869e-07
-5.05494e-08
-1.44942e-07
-5.21983e-08
-1.35778e-07
-5.34317e-08
-1.26445e-07
-5.42319e-08
-1.17016e-07
-5.4586e-08
-1.07563e-07
-5.4486e-08
-9.81594e-08
-5.39296e-08
-8.88798e-08
-5.29202e-08
-7.97962e-08
-5.14672e-08
-7.09788e-08
-4.95864e-08
-6.24945e-08
-4.72999e-08
-5.44063e-08
-4.46362e-08
-4.67718e-08
-4.16305e-08
-3.96425e-08
-3.83244e-08
-3.30625e-08
-3.47661e-08
-2.7068e-08
-3.10104e-08
-2.16863e-08
-2.71187e-08
-1.69348e-08
-2.31593e-08
-1.28206e-08
-1.92072e-08
-9.33985e-09
-1.53447e-08
-6.47745e-09
-1.16619e-08
-4.20661e-09
-8.25703e-09
-2.489e-09
-5.23728e-09
-1.2749e-09
-2.71995e-09
-5.03725e-10
-8.33028e-10
-1.04981e-10
2.83703e-10
4.69126e-10
-4.75109e-10
1.52201e-09
-1.84735e-09
5.30328e-09
-4.06904e-09
9.55749e-09
-7.09473e-09
1.40791e-08
-1.08792e-08
1.87075e-08
-1.53764e-08
2.33123e-08
-2.05391e-08
2.77902e-08
-2.63185e-08
3.20618e-08
-3.26646e-08
3.60683e-08
-3.95263e-08
3.97678e-08
-4.68516e-08
4.3132e-08
-5.45886e-08
4.6144e-08
-6.26849e-08
4.87953e-08
-7.10888e-08
5.10839e-08
-7.9749e-08
5.30126e-08
-8.86149e-08
5.45874e-08
-9.76368e-08
5.58163e-08
-1.06766e-07
5.67082e-08
-1.15954e-07
5.72721e-08
-1.25155e-07
5.75168e-08
-1.34321e-07
5.74506e-08
-1.43408e-07
5.70804e-08
-1.5237e-07
5.64125e-08
-1.61163e-07
5.5452e-08
-1.69743e-07
5.42032e-08
-1.78068e-07
5.26697e-08
-1.86094e-07
5.08547e-08
-1.93778e-07
4.87615e-08
-2.01081e-07
4.63933e-08
-2.07959e-07
4.3754e-08
-2.14375e-07
4.08485e-08
-2.20289e-07
3.76828e-08
-2.25663e-07
3.42646e-08
-2.30463e-07
3.06034e-08
-2.34653e-07
2.67108e-08
-2.38203e-07
2.26009e-08
-2.41082e-07
1.82902e-08
-2.43266e-07
1.37979e-08
-2.44732e-07
9.14622e-09
-2.45459e-07
4.35991e-09
-2.45434e-07
-5.33319e-10
-2.44644e-07
-5.50304e-09
-2.43085e-07
-1.05162e-08
-2.40754e-07
-1.55375e-08
-2.37657e-07
-2.05293e-08
-2.33803e-07
-2.54521e-08
-2.29207e-07
-3.02652e-08
-2.23891e-07
-3.49265e-08
-2.17883e-07
-3.93937e-08
-2.11215e-07
-4.36242e-08
-2.03928e-07
-4.75759e-08
-1.96067e-07
-5.1208e-08
-1.87682e-07
-5.44814e-08
-1.78829e-07
-5.73592e-08
-1.69571e-07
-5.98076e-08
-1.59973e-07
-6.17966e-08
-1.50104e-07
-6.33002e-08
-1.40039e-07
-6.42975e-08
-1.29852e-07
-6.47728e-08
-1.19622e-07
-6.47165e-08
-1.09426e-07
-6.41252e-08
-9.93438e-08
-6.30024e-08
-8.94524e-08
-6.13585e-08
-7.98275e-08
-5.92114e-08
-7.05413e-08
-5.65861e-08
-6.1662e-08
-5.35155e-08
-5.32526e-08
-5.00399e-08
-4.53697e-08
-4.62073e-08
-3.80625e-08
-4.20732e-08
-3.13722e-08
-3.77007e-08
-2.53306e-08
-3.31603e-08
-1.99597e-08
-2.85302e-08
-1.52709e-08
-2.38959e-08
-1.12646e-08
-1.9351e-08
-7.92981e-09
-1.49967e-08
-5.24396e-09
-1.09429e-08
-3.1732e-09
-7.30804e-09
-1.67267e-09
-4.22048e-09
-6.87336e-10
-1.81836e-09
-1.53324e-10
-2.50309e-10
3.15802e-10
-5.44329e-10
2.06634e-09
-2.10466e-09
6.86361e-09
-4.615e-09
1.20678e-08
-8.01341e-09
1.74775e-08
-1.22401e-08
2.29343e-08
-1.72367e-08
2.83089e-08
-2.29451e-08
3.34986e-08
-2.93078e-08
3.84245e-08
-3.62672e-08
4.30277e-08
-4.3766e-08
4.72666e-08
-5.17473e-08
5.11133e-08
-6.01545e-08
5.45512e-08
-6.89317e-08
5.75725e-08
-7.8024e-08
6.01761e-08
-8.73772e-08
6.23658e-08
-9.69381e-08
6.41484e-08
-1.06655e-07
6.5533e-08
-1.16476e-07
6.65294e-08
-1.26352e-07
6.71478e-08
-1.36233e-07
6.73979e-08
-1.46071e-07
6.72885e-08
-1.55818e-07
6.68276e-08
-1.65427e-07
6.60219e-08
-1.74853e-07
6.48772e-08
-1.84048e-07
6.33982e-08
-1.92967e-07
6.15892e-08
-2.01566e-07
5.94539e-08
-2.09801e-07
5.6996e-08
-2.17627e-07
5.42194e-08
-2.25002e-07
5.1129e-08
-2.31884e-07
4.77304e-08
-2.38232e-07
4.40309e-08
-2.44007e-07
4.00395e-08
-2.49171e-07
3.57675e-08
-2.53689e-07
3.12284e-08
-2.57526e-07
2.64386e-08
-2.60654e-07
2.14173e-08
-2.63042e-07
1.61867e-08
-2.64668e-07
1.07723e-08
-2.65511e-07
5.20278e-09
-2.65555e-07
-4.9013e-10
-2.64786e-07
-6.27149e-09
-2.63199e-07
-1.21034e-08
-2.60791e-07
-1.79453e-08
-2.57566e-07
-2.37542e-08
-2.53533e-07
-2.94848e-08
-2.48708e-07
-3.50904e-08
-2.43112e-07
-4.05228e-08
-2.36772e-07
-4.57334e-08
-2.29723e-07
-5.06732e-08
-2.22005e-07
-5.5294e-08
-2.13665e-07
-5.95486e-08
-2.04754e-07
-6.33919e-08
-1.95332e-07
-6.67813e-08
-1.85462e-07
-6.96777e-08
-1.75213e-07
-7.20459e-08
-1.64657e-07
-7.38557e-08
-1.53872e-07
-7.50823e-08
-1.42938e-07
-7.57071e-08
-1.31936e-07
-7.57183e-08
-1.2095e-07
-7.51112e-08
-1.10064e-07
-7.3889e-08
-9.93592e-08
-7.2063e-08
-8.89179e-08
-6.96527e-08
-7.88176e-08
-6.66864e-08
-6.91323e-08
-6.32008e-08
-5.99306e-08
-5.92416e-08
-5.12748e-08
-5.48631e-08
-4.32198e-08
-5.01282e-08
-3.58121e-08
-4.51084e-08
-2.90888e-08
-3.98836e-08
-2.3077e-08
-3.45419e-08
-1.77932e-08
-2.91798e-08
-1.32426e-08
-2.39017e-08
-9.41877e-09
-1.88205e-08
-6.30411e-09
-1.40575e-08
-3.86952e-09
-9.74263e-09
-2.07524e-09
-6.01475e-09
-8.7177e-10
-3.02183e-09
-2.01296e-10
-9.20783e-10
1.14505e-10
-6.11466e-10
2.67781e-09
-2.35515e-09
8.60729e-09
-5.14791e-09
1.48606e-08
-8.91206e-09
2.12417e-08
-1.35738e-08
2.7596e-08
-1.90622e-08
3.37973e-08
-2.53089e-08
3.97452e-08
-3.2247e-08
4.53626e-08
-3.98115e-08
5.05922e-08
-4.79386e-08
5.53938e-08
-5.65661e-08
5.97407e-08
-6.56329e-08
6.3618e-08
-7.50793e-08
6.7019e-08
-8.48472e-08
6.9944e-08
-9.48796e-08
7.23982e-08
-1.05121e-07
7.43897e-08
-1.15517e-07
7.59288e-08
-1.26014e-07
7.70266e-08
-1.3656e-07
7.76944e-08
-1.47105e-07
7.79427e-08
-1.57598e-07
7.77813e-08
-1.67989e-07
7.72188e-08
-1.7823e-07
7.62628e-08
-1.88272e-07
7.49195e-08
-1.98068e-07
7.31942e-08
-2.07571e-07
7.10916e-08
-2.16733e-07
6.8616e-08
-2.25509e-07
6.57717e-08
-2.33852e-07
6.25632e-08
-2.4172e-07
5.89961e-08
-2.49066e-07
5.50772e-08
-2.5585e-07
5.08148e-08
-2.6203e-07
4.62195e-08
-2.67567e-07
4.1304e-08
-2.72422e-07
3.6084e-08
-2.76562e-07
3.05781e-08
-2.79953e-07
2.48084e-08
-2.82566e-07
1.87999e-08
-2.84376e-07
1.25818e-08
-2.85359e-07
6.18627e-09
-2.85499e-07
-3.50522e-10
-2.84781e-07
-6.98913e-09
-2.83198e-07
-1.36867e-08
-2.80746e-07
-2.03975e-08
-2.77427e-07
-2.70726e-08
-2.73251e-07
-3.36611e-08
-2.68231e-07
-4.011e-08
-2.62389e-07
-4.63647e-08
-2.55753e-07
-5.23701e-08
-2.48355e-07
-5.80707e-08
-2.40237e-07
-6.34115e-08
-2.31447e-07
-6.83388e-08
-2.22038e-07
-7.2801e-08
-2.1207e-07
-7.67494e-08
-2.01609e-07
-8.0139e-08
-1.90725e-07
-8.29292e-08
-1.79496e-07
-8.50848e-08
-1.68002e-07
-8.6577e-08
-1.56325e-07
-8.73836e-08
-1.44553e-07
-8.74902e-08
-1.32774e-07
-8.68905e-08
-1.21076e-07
-8.55869e-08
-1.09548e-07
-8.35911e-08
-9.82761e-08
-8.09244e-08
-8.7345e-08
-7.76176e-08
-7.68342e-08
-7.37115e-08
-6.68187e-08
-6.92571e-08
-5.7367e-08
-6.43148e-08
-4.85402e-08
-5.89551e-08
-4.03907e-08
-5.32579e-08
-3.29617e-08
-4.73126e-08
-2.6286e-08
-4.12176e-08
-2.03857e-08
-3.50801e-08
-1.52714e-08
-2.9016e-08
-1.0942e-08
-2.31499e-08
-7.38502e-09
-1.76145e-08
-4.57649e-09
-1.25512e-08
-2.48181e-09
-8.10943e-09
-1.05673e-09
-4.44691e-09
-2.48885e-10
-1.72863e-09
-1.3438e-10
-6.76499e-10
3.35431e-09
-2.59843e-09
1.05292e-08
-5.66654e-09
1.79287e-08
-9.78815e-09
2.53633e-08
-1.48759e-08
3.26837e-08
-2.08468e-08
3.97683e-08
-2.76219e-08
4.65204e-08
-3.51255e-08
5.28662e-08
-4.32847e-08
5.87514e-08
-5.20294e-08
6.41384e-08
-6.12917e-08
6.90031e-08
-7.10061e-08
7.33324e-08
-8.11092e-08
7.7122e-08
-9.15394e-08
8.03742e-08
-1.02237e-07
8.30958e-08
-1.13144e-07
8.52967e-08
-1.24204e-07
8.69888e-08
-1.35362e-07
8.81846e-08
-1.46564e-07
8.88963e-08
-1.57757e-07
8.91359e-08
-1.6889e-07
8.8914e-08
-1.79911e-07
8.82399e-08
-1.9077e-07
8.71218e-08
-2.01417e-07
8.55666e-08
-2.11803e-07
8.35802e-08
-2.21879e-07
8.11677e-08
-2.31597e-07
7.83338e-08
-2.40909e-07
7.50834e-08
-2.49767e-07
7.14218e-08
-2.58126e-07
6.73552e-08
-2.65941e-07
6.28915e-08
-2.73166e-07
5.804e-08
-2.79759e-07
5.28127e-08
-2.85679e-07
4.72241e-08
-2.90887e-07
4.12918e-08
-2.95346e-07
3.50369e-08
-2.99021e-07
2.84837e-08
-3.01882e-07
2.16608e-08
-3.03901e-07
1.46004e-08
-3.05053e-07
7.33881e-09
-3.0532e-07
-8.38057e-11
-3.04686e-07
-7.62333e-09
-3.0314e-07
-1.52319e-08
-3.0068e-07
-2.28583e-08
-2.97304e-07
-3.04482e-08
-2.93021e-07
-3.79443e-08
-2.87843e-07
-4.52874e-08
-2.81792e-07
-5.24164e-08
-2.74893e-07
-5.92692e-08
-2.6718e-07
-6.57835e-08
-2.58694e-07
-7.18973e-08
-2.49483e-07
-7.755e-08
-2.39601e-07
-8.26831e-08
-2.29109e-07
-8.72411e-08
-2.18075e-07
-9.11728e-08
-2.06573e-07
-9.44317e-08
-1.9468e-07
-9.69772e-08
-1.82482e-07
-9.87755e-08
-1.70065e-07
-9.98007e-08
-1.5752e-07
-1.00035e-07
-1.44941e-07
-9.94699e-08
-1.32421e-07
-9.81068e-08
-1.20054e-07
-9.59575e-08
-1.07935e-07
-9.30443e-08
-9.61513e-08
-8.94007e-08
-8.47916e-08
-8.50712e-08
-7.3937e-08
-8.01117e-08
-6.36627e-08
-7.45891e-08
-5.40367e-08
-6.85811e-08
-4.51182e-08
-6.21764e-08
-3.69569e-08
-5.54739e-08
-2.95923e-08
-4.85823e-08
-2.30524e-08
-4.162e-08
-1.73538e-08
-3.47146e-08
-1.25014e-08
-2.80023e-08
-8.48797e-09
-2.16279e-08
-5.295e-09
-1.57441e-08
-2.89298e-09
-1.05115e-08
-1.24261e-09
-6.09728e-09
-2.96258e-10
-2.67498e-09
-4.30637e-10
-7.39417e-10
4.09372e-09
-2.83425e-09
1.26241e-08
-6.17001e-09
2.12645e-08
-1.06397e-08
2.9833e-08
-1.6143e-08
3.8187e-08
-2.25854e-08
4.62106e-08
-2.98774e-08
5.38124e-08
-3.79345e-08
6.09233e-08
-4.66762e-08
6.74931e-08
-5.60257e-08
7.3488e-08
-6.591e-08
7.88873e-08
-7.62587e-08
8.36811e-08
-8.70047e-08
8.7868e-08
-9.80831e-08
9.14526e-08
-1.09432e-07
9.44443e-08
-1.2099e-07
9.6855e-08
-1.32699e-07
9.86984e-08
-1.44503e-07
9.99885e-08
-1.56346e-07
1.00739e-07
-1.68174e-07
1.00964e-07
-1.79933e-07
1.00673e-07
-1.91571e-07
9.98781e-08
-2.03037e-07
9.85874e-08
-2.14279e-07
9.68085e-08
-2.25246e-07
9.45477e-08
-2.35889e-07
9.18106e-08
-2.46158e-07
8.86025e-08
-2.56003e-07
8.49288e-08
-2.65377e-07
8.07953e-08
-2.74231e-07
7.6209e-08