/*--------------------------------*- C++ -*----------------------------------*\
| =========                 |                                                 |
| \\      /  F ield         | OpenFOAM: The Open Source CFD Toolbox           |
|  \\    /   O peration     | Version:  2.1.1                                 |
|   \\  /    A nd           | Web:      www.OpenFOAM.org                      |
|    \\/     M anipulation  |                                                 |
\*---------------------------------------------------------------------------*/
FoamFile
{
    version     2.0;
    format      ascii;
    class       volVectorField;
    location    "2";
    object      U;
}
// * * * * * * * * * * * * * * * * * * * * * * * * * * * * * * * * * * * * * //

dimensions      [0 1 -1 0 0 0 0];

internalField   nonuniform List<vector> 
6561
(
(8.35137e-06 -8.33691e-06 0)
(3.30837e-05 -1.55861e-05 0)
(6.34364e-05 -1.44883e-05 0)
(8.28324e-05 -9.0329e-06 0)
(8.29714e-05 -1.82634e-06 0)
(6.10675e-05 5.818e-06 0)
(1.66466e-05 1.32402e-05 0)
(-4.9552e-05 2.01351e-05 0)
(-0.000136101 2.63717e-05 0)
(-0.000241215 3.19072e-05 0)
(-0.000362962 3.67481e-05 0)
(-0.00049938 4.09256e-05 0)
(-0.00064855 4.44832e-05 0)
(-0.000808637 4.74695e-05 0)
(-0.000977914 4.99339e-05 0)
(-0.00115477 5.19239e-05 0)
(-0.0013377 5.34832e-05 0)
(-0.00152533 5.4651e-05 0)
(-0.00171637 5.54611e-05 0)
(-0.00190962 5.59417e-05 0)
(-0.00210396 5.61153e-05 0)
(-0.00229831 5.59994e-05 0)
(-0.00249167 5.5606e-05 0)
(-0.00268303 5.4943e-05 0)
(-0.00287145 5.40141e-05 0)
(-0.00305595 5.28198e-05 0)
(-0.00323559 5.13579e-05 0)
(-0.00340942 4.96246e-05 0)
(-0.00357646 4.76147e-05 0)
(-0.00373574 4.53228e-05 0)
(-0.0038863 4.27437e-05 0)
(-0.00402712 3.98732e-05 0)
(-0.00415724 3.67091e-05 0)
(-0.00427567 3.32512e-05 0)
(-0.00438143 2.95025e-05 0)
(-0.00447358 2.54691e-05 0)
(-0.00455122 2.11616e-05 0)
(-0.00461348 1.65943e-05 0)
(-0.00465958 1.17864e-05 0)
(-0.0046888 6.76206e-06 0)
(-0.0047005 1.55024e-06 0)
(-0.00469418 -3.81512e-06 0)
(-0.00466945 -9.29505e-06 0)
(-0.00462606 -1.48459e-05 0)
(-0.0045639 -2.04197e-05 0)
(-0.00448304 -2.59645e-05 0)
(-0.00438372 -3.14249e-05 0)
(-0.00426636 -3.67428e-05 0)
(-0.00413159 -4.18583e-05 0)
(-0.0039802 -4.67104e-05 0)
(-0.00381321 -5.1238e-05 0)
(-0.00363182 -5.53812e-05 0)
(-0.0034374 -5.90819e-05 0)
(-0.00323152 -6.22853e-05 0)
(-0.00301592 -6.4941e-05 0)
(-0.00279246 -6.70039e-05 0)
(-0.00256316 -6.84351e-05 0)
(-0.00233015 -6.92031e-05 0)
(-0.00209561 -6.92846e-05 0)
(-0.00186183 -6.86645e-05 0)
(-0.00163108 -6.73374e-05 0)
(-0.00140566 -6.5307e-05 0)
(-0.00118783 -6.25867e-05 0)
(-0.000979782 -5.91994e-05 0)
(-0.000783621 -5.51775e-05 0)
(-0.000601322 -5.05624e-05 0)
(-0.000434705 -4.54044e-05 0)
(-0.000285401 -3.97621e-05 0)
(-0.000154825 -3.37027e-05 0)
(-4.41245e-05 -2.73043e-05 0)
(4.58042e-05 -2.06668e-05 0)
(0.000114419 -1.38696e-05 0)
(0.000161589 -7.04775e-06 0)
(0.000187612 -3.5815e-07 0)
(0.000193381 5.98895e-06 0)
(0.000180554 1.16887e-05 0)
(0.000151834 1.62731e-05 0)
(0.000111345 1.90104e-05 0)
(6.53306e-05 1.87118e-05 0)
(2.42394e-05 1.36143e-05 0)
(3.29617e-06 3.31055e-06 0)
(1.56976e-05 -3.31303e-05 0)
(5.40206e-05 -5.37995e-05 0)
(8.93125e-05 -4.20909e-05 0)
(9.38797e-05 -1.20047e-05 0)
(5.20217e-05 2.71229e-05 0)
(-4.32506e-05 6.96549e-05 0)
(-0.000194299 0.000112258 0)
(-0.000400486 0.000153005 0)
(-0.000659245 0.000190831 0)
(-0.000966817 0.000225188 0)
(-0.00131879 0.000255852 0)
(-0.00171045 0.000282796 0)
(-0.00213701 0.000306112 0)
(-0.00259375 0.000325963 0)
(-0.00307611 0.00034255 0)
(-0.00357976 0.000356086 0)
(-0.00410059 0.00036678 0)
(-0.00463474 0.000374833 0)
(-0.00517857 0.000380421 0)
(-0.00572865 0.0003837 0)
(-0.00628173 0.000384797 0)
(-0.0068347 0.000383815 0)
(-0.00738458 0.000380831 0)
(-0.00792846 0.000375898 0)
(-0.00846352 0.000369048 0)
(-0.00898695 0.000360297 0)
(-0.00949598 0.000349646 0)
(-0.00998784 0.000337087 0)
(-0.0104598 0.000322607 0)
(-0.010909 0.000306192 0)
(-0.0113327 0.00028783 0)
(-0.0117281 0.000267518 0)
(-0.0120925 0.000245264 0)
(-0.0124232 0.000221091 0)
(-0.0127174 0.000195039 0)
(-0.0129727 0.000167172 0)
(-0.0131866 0.000137577 0)
(-0.0133568 0.000106367 0)
(-0.0134812 7.36837e-05 0)
(-0.013558 3.9698e-05 0)
(-0.0135854 4.61031e-06 0)
(-0.0135623 -3.13493e-05 0)
(-0.0134877 -6.79218e-05 0)
(-0.013361 -0.000104821 0)
(-0.0131821 -0.000141735 0)
(-0.0129513 -0.00017833 0)
(-0.0126694 -0.000214254 0)
(-0.0123376 -0.00024914 0)
(-0.0119578 -0.000282611 0)
(-0.0115322 -0.000314286 0)
(-0.0110637 -0.000343787 0)
(-0.0105556 -0.000370743 0)
(-0.0100117 -0.000394798 0)
(-0.00943641 -0.000415615 0)
(-0.00883438 -0.000432888 0)
(-0.00821075 -0.000446342 0)
(-0.00757099 -0.000455745 0)
(-0.00692085 -0.000460908 0)
(-0.0062663 -0.000461692 0)
(-0.00561346 -0.000458014 0)
(-0.0049685 -0.000449848 0)
(-0.00433761 -0.000437225 0)
(-0.00372685 -0.000420242 0)
(-0.00314213 -0.000399052 0)
(-0.00258909 -0.000373875 0)
(-0.002073 -0.000344989 0)
(-0.00159872 -0.000312735 0)
(-0.00117055 -0.000277515 0)
(-0.000792204 -0.000239794 0)
(-0.000466643 -0.000200114 0)
(-0.000196037 -0.000159106 0)
(1.84084e-05 -0.000117458 0)
(0.000176603 -7.60368e-05 0)
(0.000279747 -3.58805e-05 0)
(0.000330613 1.70024e-06 0)
(0.000333915 3.49834e-05 0)
(0.000296793 6.16366e-05 0)
(0.000229271 7.84622e-05 0)
(0.000144898 8.10572e-05 0)
(6.37223e-05 6.38519e-05 0)
(1.35018e-05 2.41598e-05 0)
(1.47896e-05 -6.38228e-05 0)
(4.28066e-05 -8.93039e-05 0)
(4.95004e-05 -4.88131e-05 0)
(4.78261e-06 3.10171e-05 0)
(-0.000109326 0.000132285 0)
(-0.000301807 0.000242922 0)
(-0.000576169 0.000355042 0)
(-0.000932014 0.000463633 0)
(-0.0013662 0.000565634 0)
(-0.00187378 0.000659275 0)
(-0.00244869 0.000743648 0)
(-0.00308424 0.000818409 0)
(-0.0037735 0.000883586 0)
(-0.00450949 0.000939437 0)
(-0.00528537 0.000986359 0)
(-0.00609451 0.00102482 0)
(-0.00693058 0.0010553 0)
(-0.00778753 0.00107828 0)
(-0.00865964 0.0010942 0)
(-0.00954142 0.00110344 0)
(-0.0104277 0.00110633 0)
(-0.0113133 0.00110315 0)
(-0.0121936 0.00109409 0)
(-0.0130638 0.00107932 0)
(-0.0139193 0.00105893 0)
(-0.0147555 0.00103297 0)
(-0.0155679 0.00100148 0)
(-0.0163522 0.000964457 0)
(-0.0171038 0.000921884 0)
(-0.0178182 0.000873754 0)
(-0.0184911 0.000820068 0)
(-0.0191181 0.000760848 0)
(-0.0196948 0.000696147 0)
(-0.020217 0.000626063 0)
(-0.0206806 0.000550741 0)
(-0.0210815 0.000470388 0)
(-0.0214161 0.000385278 0)
(-0.0216809 0.000295752 0)
(-0.0218726 0.000202232 0)
(-0.0219884 0.000105215 0)
(-0.0220261 5.27872e-06 0)
(-0.0219836 -9.6921e-05 0)
(-0.0218598 -0.000200651 0)
(-0.0216538 -0.000305108 0)
(-0.0213656 -0.000409421 0)
(-0.0209958 -0.000512662 0)
(-0.0205457 -0.000613856 0)
(-0.0200174 -0.000711992 0)
(-0.0194139 -0.000806035 0)
(-0.0187389 -0.000894943 0)
(-0.0179967 -0.000977681 0)
(-0.0171926 -0.00105324 0)
(-0.0163327 -0.00112065 0)
(-0.0154236 -0.001179 0)
(-0.0144727 -0.00122747 0)
(-0.0134878 -0.0012653 0)
(-0.0124775 -0.00129188 0)
(-0.0114506 -0.0013067 0)
(-0.0104164 -0.0013094 0)
(-0.00938412 -0.00129975 0)
(-0.00836339 -0.00127769 0)
(-0.00736367 -0.00124333 0)
(-0.00639428 -0.00119694 0)
(-0.00546426 -0.00113896 0)
(-0.00458225 -0.00107002 0)
(-0.00375633 -0.0009909 0)
(-0.00299387 -0.000902573 0)
(-0.00230144 -0.000806184 0)
(-0.00168461 -0.000703071 0)
(-0.00114785 -0.000594772 0)
(-0.000694311 -0.000483064 0)
(-0.000325678 -0.000369984 0)
(-4.19198e-05 -0.000257936 0)
(0.000158958 -0.000149787 0)
(0.000281245 -4.90294e-05 0)
(0.000331945 3.99778e-05 0)
(0.000321257 0.000111713 0)
(0.000262899 0.000159173 0)
(0.000174496 0.000173635 0)
(8.11878e-05 0.000145015 0)
(1.85632e-05 6.50342e-05 0)
(9.51012e-06 -8.38714e-05 0)
(1.28711e-05 -9.42009e-05 0)
(-3.09061e-05 -4.06802e-06 0)
(-0.00014845 0.000147498 0)
(-0.000356796 0.000334033 0)
(-0.00066519 0.000536776 0)
(-0.00107725 0.000742755 0)
(-0.00159236 0.000943301 0)
(-0.00220682 0.00113281 0)
(-0.00291477 0.00130783 0)
(-0.00370891 0.00146642 0)
(-0.00458107 0.00160767 0)
(-0.00552267 0.00173137 0)
(-0.00652491 0.0018378 0)
(-0.00757911 0.00192751 0)
(-0.00867675 0.00200122 0)
(-0.00980958 0.00205971 0)
(-0.0109697 0.00210378 0)
(-0.0121494 0.00213418 0)
(-0.0133415 0.00215158 0)
(-0.014539 0.00215657 0)
(-0.015735 0.00214964 0)
(-0.0169231 0.00213115 0)
(-0.0180968 0.0021014 0)
(-0.0192498 0.00206059 0)
(-0.0203761 0.00200885 0)
(-0.0214695 0.00194623 0)
(-0.0225239 0.00187278 0)
(-0.0235333 0.00178852 0)
(-0.0244918 0.00169345 0)
(-0.0253934 0.00158763 0)
(-0.0262323 0.00147114 0)
(-0.0270028 0.00134412 0)
(-0.0276991 0.0012068 0)
(-0.028316 0.00105952 0)
(-0.0288483 0.000902697 0)
(-0.0292909 0.000736898 0)
(-0.0296396 0.000562815 0)
(-0.02989 0.000381278 0)
(-0.0300388 0.000193268 0)
(-0.030083 -9.33373e-08 0)
(-0.0300201 -0.000197536 0)
(-0.0298487 -0.000397652 0)
(-0.0295679 -0.000598902 0)
(-0.0291777 -0.00079963 0)
(-0.0286792 -0.000998074 0)
(-0.0280742 -0.00119239 0)
(-0.0273657 -0.00138066 0)
(-0.0265575 -0.00156096 0)
(-0.0256546 -0.0017313 0)
(-0.0246629 -0.00188977 0)
(-0.0235893 -0.00203446 0)
(-0.0224418 -0.00216357 0)
(-0.0212291 -0.00227541 0)
(-0.0199609 -0.00236841 0)
(-0.0186475 -0.00244122 0)
(-0.0172999 -0.00249266 0)
(-0.0159297 -0.0025218 0)
(-0.0145488 -0.00252796 0)
(-0.0131696 -0.00251076 0)
(-0.0118044 -0.00247008 0)
(-0.0104654 -0.00240614 0)
(-0.00916483 -0.00231947 0)
(-0.00791439 -0.00221092 0)
(-0.00672529 -0.00208168 0)
(-0.00560799 -0.00193327 0)
(-0.00457206 -0.00176755 0)
(-0.00362596 -0.00158673 0)
(-0.00277689 -0.00139338 0)
(-0.00203056 -0.00119044 0)
(-0.00139102 -0.000981332 0)
(-0.000860368 -0.000769935 0)
(-0.000438554 -0.000560777 0)
(-0.000123061 -0.000359157 0)
(9.14156e-05 -0.000171376 0)
(0.000213359 -5.02909e-06 0)
(0.000254859 0.000130643 0)
(0.000231813 0.000224404 0)
(0.000164226 0.00026283 0)
(8.00877e-05 0.00023056 0)
(1.90513e-05 0.000111165 0)
(2.33355e-06 -8.46543e-05 0)
(-2.71091e-05 -5.17627e-05 0)
(-0.000135641 0.000111874 0)
(-0.000342314 0.000356949 0)
(-0.000660885 0.000649367 0)
(-0.0010995 0.000964178 0)
(-0.00166093 0.0012835 0)
(-0.00234377 0.00159495 0)
(-0.00314351 0.00189019 0)
(-0.00405338 0.00216387 0)
(-0.00506501 0.00241278 0)
(-0.00616902 0.00263526 0)
(-0.00735545 0.00283075 0)
(-0.00861408 0.0029994 0)
(-0.00993466 0.00314187 0)
(-0.0113071 0.00325909 0)
(-0.0127215 0.00335213 0)
(-0.0141683 0.00342211 0)
(-0.0156383 0.00347009 0)
(-0.0171225 0.00349707 0)
(-0.0186124 0.00350391 0)
(-0.0200995 0.00349132 0)
(-0.0215757 0.00345989 0)
(-0.0230332 0.00341006 0)
(-0.024464 0.00334217 0)
(-0.0258606 0.00325642 0)
(-0.0272153 0.00315295 0)
(-0.0285207 0.00303187 0)
(-0.0297692 0.00289324 0)
(-0.0309536 0.00273714 0)
(-0.0320664 0.00256369 0)
(-0.0331007 0.00237309 0)
(-0.0340493 0.00216564 0)
(-0.0349055 0.00194175 0)
(-0.0356626 0.001702 0)
(-0.0363145 0.00144714 0)
(-0.0368553 0.00117811 0)
(-0.0372796 0.000896076 0)
(-0.0375826 0.000602393 0)
(-0.0377601 0.000298659 0)
(-0.0378087 -1.33048e-05 0)
(-0.0377256 -0.000331458 0)
(-0.0375092 -0.000653544 0)
(-0.0371585 -0.000977108 0)
(-0.0366739 -0.00129952 0)
(-0.0360566 -0.00161797 0)
(-0.0353091 -0.00192957 0)
(-0.034435 -0.00223128 0)
(-0.0334391 -0.00252006 0)
(-0.0323275 -0.00279282 0)
(-0.0311074 -0.00304651 0)
(-0.0297873 -0.00327819 0)
(-0.0283767 -0.00348501 0)
(-0.0268861 -0.00366433 0)
(-0.0253273 -0.00381373 0)
(-0.0237127 -0.00393106 0)
(-0.0220555 -0.0040145 0)
(-0.0203696 -0.00406262 0)
(-0.0186695 -0.00407435 0)
(-0.0169698 -0.0040491 0)
(-0.0152852 -0.00398671 0)
(-0.0136307 -0.00388754 0)
(-0.0120208 -0.00375243 0)
(-0.0104694 -0.00358275 0)
(-0.00899016 -0.00338041 0)
(-0.00759549 -0.00314781 0)
(-0.0062969 -0.00288794 0)
(-0.00510456 -0.0026043 0)
(-0.00402709 -0.002301 0)
(-0.00307135 -0.00198275 0)
(-0.00224222 -0.00165492 0)
(-0.00154231 -0.00132365 0)
(-0.000971692 -0.000995979 0)
(-0.000527661 -0.000680044 0)
(-0.000204377 -0.000385308 0)
(7.44955e-06 -0.000122899 0)
(0.000120913 9.40201e-05 0)
(0.000153074 0.000249851 0)
(0.000125237 0.000326314 0)
(6.6468e-05 0.00030235 0)
(1.68349e-05 0.000152908 0)
(-5.5448e-06 -6.27077e-05 0)
(-7.20824e-05 4.68379e-05 0)
(-0.000254088 0.000310878 0)
(-0.000560646 0.000672488 0)
(-0.00100059 0.00109127 0)
(-0.0015799 0.00153693 0)
(-0.00229967 0.00198714 0)
(-0.00315712 0.00242602 0)
(-0.00414659 0.00284257 0)
(-0.00526024 0.00322949 0)
(-0.00648865 0.00358222 0)
(-0.00782131 0.00389826 0)
(-0.00924709 0.00417657 0)
(-0.0107545 0.00441714 0)
(-0.012332 0.00462063 0)
(-0.0139681 0.00478814 0)
(-0.0156516 0.00492101 0)
(-0.0173714 0.00502066 0)
(-0.019117 0.00508847 0)
(-0.0208779 0.00512575 0)
(-0.022644 0.00513363 0)
(-0.0244057 0.00511309 0)
(-0.0261533 0.00506494 0)
(-0.0278775 0.00498978 0)
(-0.0295691 0.0048881 0)
(-0.031219 0.00476022 0)
(-0.0328184 0.00460637 0)
(-0.0343583 0.00442675 0)
(-0.03583 0.00422149 0)
(-0.0372248 0.00399078 0)
(-0.0385344 0.00373488 0)
(-0.0397502 0.00345411 0)
(-0.0408642 0.003149 0)
(-0.0418685 0.00282021 0)
(-0.0427555 0.00246864 0)
(-0.043518 0.00209546 0)
(-0.0441493 0.00170208 0)
(-0.0446433 0.00129021 0)
(-0.0449946 0.00086188 0)
(-0.0451984 0.000419422 0)
(-0.0452509 -3.45123e-05 0)
(-0.0451492 -0.000496963 0)
(-0.0448912 -0.000964674 0)
(-0.0444763 -0.00143411 0)
(-0.0439049 -0.0019015 0)
(-0.0431785 -0.00236285 0)
(-0.0423001 -0.00281399 0)
(-0.0412739 -0.00325063 0)
(-0.0401057 -0.00366841 0)
(-0.0388025 -0.00406297 0)
(-0.0373726 -0.00442999 0)
(-0.0358258 -0.00476527 0)
(-0.034173 -0.00506481 0)
(-0.0324265 -0.00532484 0)
(-0.0305995 -0.00554196 0)
(-0.0287065 -0.00571314 0)
(-0.0267626 -0.0058358 0)
(-0.0247837 -0.00590789 0)
(-0.0227864 -0.00592795 0)
(-0.0207874 -0.00589512 0)
(-0.0188037 -0.00580921 0)
(-0.0168522 -0.00567072 0)
(-0.0149498 -0.00548088 0)
(-0.0131124 -0.00524164 0)
(-0.0113555 -0.00495573 0)
(-0.00969365 -0.00462662 0)
(-0.00813992 -0.00425857 0)
(-0.00670603 -0.00385662 0)
(-0.00540198 -0.00342664 0)
(-0.00423575 -0.00297535 0)
(-0.00321306 -0.00251039 0)
(-0.00233713 -0.00204046 0)
(-0.00160841 -0.00157539 0)
(-0.00102429 -0.00112642 0)
(-0.000578831 -0.000706406 0)
(-0.000262487 -0.000330177 0)
(-6.18228e-05 -1.49145e-05 0)
(4.06333e-05 0.000219397 0)
(6.66561e-05 0.000349631 0)
(4.49326e-05 0.0003491 0)
(1.31495e-05 0.000185011 0)
(-1.35435e-05 -1.6603e-05 0)
(-0.000119173 0.000206444 0)
(-0.000379533 0.000600248 0)
(-0.000792553 0.00110272 0)
(-0.00136117 0.00166863 0)
(-0.0020884 0.00226332 0)
(-0.00297296 0.00286073 0)
(-0.00401018 0.00344186 0)
(-0.0051929 0.00399329 0)
(-0.00651197 0.00450588 0)
(-0.00795682 0.00497378 0)
(-0.00951582 0.0053936 0)
(-0.0111767 0.00576381 0)
(-0.0129269 0.00608416 0)
(-0.0147537 0.00635531 0)
(-0.0166444 0.00657848 0)
(-0.0185866 0.00675525 0)
(-0.0205681 0.00688729 0)
(-0.0225768 0.00697632 0)
(-0.0246013 0.00702392 0)
(-0.0266301 0.00703152 0)
(-0.0286522 0.00700036 0)
(-0.0306568 0.00693146 0)
(-0.0326332 0.00682562 0)
(-0.034571 0.00668347 0)
(-0.0364598 0.00650547 0)
(-0.0382896 0.00629198 0)
(-0.0400502 0.00604329 0)
(-0.0417317 0.00575965 0)
(-0.0433244 0.0054414 0)
(-0.0448186 0.00508894 0)
(-0.0462048 0.00470282 0)
(-0.047474 0.0042838 0)
(-0.0486172 0.00383289 0)
(-0.049626 0.00335138 0)
(-0.0504924 0.00284091 0)
(-0.051209 0.00230347 0)
(-0.051769 0.00174142 0)
(-0.0521663 0.00115754 0)
(-0.0523958 0.000555036 0)
(-0.0524532 -6.25001e-05 0)
(-0.0523355 -0.000691061 0)
(-0.0520405 -0.00132626 0)
(-0.0515675 -0.00196334 0)
(-0.0509171 -0.00259724 0)
(-0.0500911 -0.00322262 0)
(-0.0490929 -0.0038339 0)
(-0.0479274 -0.00442539 0)
(-0.0466009 -0.00499126 0)
(-0.0451213 -0.00552571 0)
(-0.043498 -0.006023 0)
(-0.0417417 -0.00647756 0)
(-0.0398648 -0.00688406 0)
(-0.0378809 -0.00723753 0)
(-0.0358047 -0.00753342 0)
(-0.0336522 -0.00776772 0)
(-0.0314402 -0.00793702 0)
(-0.0291866 -0.0080386 0)
(-0.0269097 -0.00807049 0)
(-0.0246281 -0.00803157 0)
(-0.0223607 -0.00792159 0)
(-0.0201266 -0.0077412 0)
(-0.0179442 -0.00749205 0)
(-0.0158317 -0.00717675 0)
(-0.0138061 -0.00679894 0)
(-0.0118839 -0.00636325 0)
(-0.0100796 -0.00587539 0)
(-0.00840654 -0.00534208 0)
(-0.006876 -0.00477115 0)
(-0.00549709 -0.00417155 0)
(-0.00427648 -0.00355342 0)
(-0.00321817 -0.00292819 0)
(-0.00232316 -0.00230874 0)
(-0.00158924 -0.00170956 0)
(-0.00101076 -0.00114706 0)
(-0.00057837 -0.000639836 0)
(-0.000278805 -0.000209109 0)
(-9.47735e-05 0.000120826 0)
(-4.69831e-06 0.000322184 0)
(1.8639e-05 0.000363095 0)
(8.72572e-06 0.000204387 0)
(-2.14148e-05 5.40745e-05 0)
(-0.00016677 0.000429382 0)
(-0.000507786 0.000984075 0)
(-0.00103086 0.00165287 0)
(-0.00173249 0.00238712 0)
(-0.00261218 0.00314884 0)
(-0.00366578 0.00390899 0)
(-0.00488627 0.00464603 0)
(-0.00626462 0.00534445 0)
(-0.00779019 0.0059935 0)
(-0.00945107 0.00658616 0)
(-0.0112345 0.00711826 0)
(-0.013127 0.00758776 0)
(-0.0151151 0.0079942 0)
(-0.0171849 0.00833821 0)
(-0.0193227 0.00862113 0)
(-0.0215149 0.00884471 0)
(-0.0237484 0.00901093 0)
(-0.0260099 0.00912176 0)
(-0.0282868 0.00917908 0)
(-0.0305667 0.0091846 0)
(-0.0328372 0.00913981 0)
(-0.0350865 0.00904595 0)
(-0.0373027 0.00890401 0)
(-0.0394744 0.00871479 0)
(-0.04159 0.00847889 0)
(-0.0436383 0.0081968 0)
(-0.0456082 0.00786895 0)
(-0.0474885 0.00749576 0)
(-0.0492686 0.00707769 0)
(-0.0509378 0.00661537 0)
(-0.0524857 0.0061096 0)
(-0.0539021 0.00556145 0)
(-0.0551775 0.00497231 0)
(-0.0563024 0.00434394 0)
(-0.0572682 0.00367852 0)
(-0.0580668 0.00297869 0)
(-0.0586908 0.00224756 0)
(-0.0591337 0.00148876 0)
(-0.0593898 0.000706442 0)
(-0.0594546 -9.47381e-05 0)
(-0.0593248 -0.000909619 0)
(-0.0589982 -0.00173256 0)
(-0.0584739 -0.00255747 0)
(-0.0577527 -0.00337788 0)
(-0.0568367 -0.00418697 0)
(-0.0557295 -0.00497763 0)
(-0.0544366 -0.0057426 0)
(-0.0529647 -0.0064745 0)
(-0.0513226 -0.00716593 0)
(-0.0495204 -0.0078096 0)
(-0.0475699 -0.00839845 0)
(-0.0454844 -0.00892571 0)
(-0.0432787 -0.00938506 0)
(-0.040969 -0.00977073 0)
(-0.0385726 -0.0100776 0)
(-0.0361079 -0.0103014 0)
(-0.0335941 -0.0104385 0)
(-0.0310514 -0.0104866 0)
(-0.0285 -0.0104441 0)
(-0.0259608 -0.0103108 0)
(-0.0234543 -0.0100873 0)
(-0.021001 -0.00977591 0)
(-0.0186206 -0.0093798 0)
(-0.0163321 -0.0089036 0)
(-0.0141533 -0.00835324 0)
(-0.0121007 -0.00773593 0)
(-0.0101888 -0.00706025 0)
(-0.0084303 -0.00633612 0)
(-0.00683555 -0.00557488 0)
(-0.00541228 -0.00478931 0)
(-0.0041654 -0.00399377 0)
(-0.00309671 -0.00320429 0)
(-0.00220469 -0.00243877 0)
(-0.00148426 -0.00171723 0)
(-0.000926658 -0.00106206 0)
(-0.000519216 -0.00049847 0)
(-0.000245279 -5.49116e-05 0)
(-8.3986e-05 0.000236484 0)
(-1.03181e-05 0.000339277 0)
(3.99345e-06 0.00020929 0)
(-2.9056e-05 0.000149184 0)
(-0.000213995 0.000716394 0)
(-0.000636296 0.00146419 0)
(-0.00127091 0.00232565 0)
(-0.00210766 0.00324994 0)
(-0.00314223 0.00419675 0)
(-0.00436721 0.00513485 0)
(-0.00577291 0.00604075 0)
(-0.00734814 0.00689729 0)
(-0.00908054 0.00769242 0)
(-0.0109567 0.00841816 0)
(-0.0129626 0.00906967 0)
(-0.0150838 0.00964453 0)
(-0.0173054 0.0101421 0)
(-0.0196128 0.010563 0)
(-0.0219912 0.0109086 0)
(-0.0244262 0.011181 0)
(-0.0269034 0.0113823 0)
(-0.0294088 0.0115148 0)
(-0.0319287 0.0115807 0)
(-0.0344497 0.011582 0)
(-0.0369585 0.0115203 0)
(-0.0394422 0.0113971 0)
(-0.0418879 0.0112136 0)
(-0.0442831 0.0109708 0)
(-0.0466153 0.0106695 0)
(-0.0488723 0.0103102 0)
(-0.051042 0.00989357 0)
(-0.0531124 0.0094202 0)
(-0.0550717 0.00889073 0)
(-0.0569084 0.00830604 0)
(-0.0586112 0.00766721 0)
(-0.0601692 0.00697568 0)
(-0.061572 0.00623327 0)
(-0.0628094 0.00544225 0)
(-0.0638722 0.00460543 0)
(-0.0647515 0.00372614 0)
(-0.0654395 0.00280835 0)
(-0.0659291 0.00185659 0)
(-0.0662143 0.000876069 0)
(-0.0662903 -0.000127424 0)
(-0.0661534 -0.00114747 0)
(-0.0658014 -0.00217709 0)
(-0.0652334 -0.00320874 0)
(-0.06445 -0.00423444 0)
(-0.0634536 -0.00524577 0)
(-0.062248 -0.006234 0)
(-0.0608391 -0.00719018 0)
(-0.059234 -0.00810523 0)
(-0.0574421 -0.00897008 0)
(-0.0554742 -0.00977576 0)
(-0.0533428 -0.0105136 0)
(-0.0510623 -0.0111752 0)
(-0.0486483 -0.011753 0)
(-0.0461183 -0.0122396 0)
(-0.0434908 -0.0126289 0)
(-0.0407854 -0.0129156 0)
(-0.038023 -0.0130952 0)
(-0.0352251 -0.0131647 0)
(-0.0324135 -0.0131223 0)
(-0.0296108 -0.0129674 0)
(-0.0268391 -0.0127011 0)
(-0.0241206 -0.0123259 0)
(-0.0214767 -0.0118457 0)
(-0.0189282 -0.0112663 0)
(-0.0164944 -0.0105947 0)
(-0.0141933 -0.00983999 0)
(-0.0120411 -0.0090125 0)
(-0.0100518 -0.00812442 0)
(-0.00823711 -0.00718959 0)
(-0.00660597 -0.00622357 0)
(-0.00516437 -0.00524375 0)
(-0.00391514 -0.00426942 0)
(-0.00285767 -0.00332196 0)
(-0.00198779 -0.00242503 0)
(-0.00129757 -0.00160482 0)
(-0.000775325 -0.000890431 0)
(-0.000405367 -0.000314277 0)
(-0.000167925 8.75172e-05 0)
(-4.06062e-05 0.000274568 0)
(-8.05847e-07 0.000198856 0)
(-3.64316e-05 0.000268287 0)
(-0.000260372 0.00106721 0)
(-0.000763518 0.0020409 0)
(-0.00150967 0.00312196 0)
(-0.00248201 0.00425841 0)
(-0.00367218 0.00540854 0)
(-0.00506932 0.00653968 0)
(-0.00666079 0.00762698 0)
(-0.00843306 0.00865213 0)
(-0.0103718 0.00960214 0)
(-0.0124621 0.0104683 0)
(-0.0146884 0.0112454 0)
(-0.0170351 0.0119306 0)
(-0.0194864 0.0125233 0)
(-0.0220266 0.0130241 0)
(-0.02464 0.0134346 0)
(-0.0273113 0.0137569 0)
(-0.0300252 0.0139936 0)
(-0.0327669 0.0141472 0)
(-0.0355217 0.01422 0)
(-0.0382754 0.0142144 0)
(-0.0410138 0.0141323 0)
(-0.043723 0.0139754 0)
(-0.0463895 0.013745 0)
(-0.0489996 0.0134423 0)
(-0.0515402 0.0130682 0)
(-0.053998 0.0126235 0)
(-0.05636 0.012109 0)
(-0.0586134 0.0115255 0)
(-0.0607456 0.0108737 0)
(-0.0627443 0.0101549 0)
(-0.0645974 0.00937051 0)
(-0.0662932 0.0085223 0)
(-0.0678206 0.00761258 0)
(-0.0691688 0.00664422 0)
(-0.0703278 0.00562067 0)
(-0.0712883 0.00454606 0)
(-0.0720419 0.00342521 0)
(-0.072581 0.00226367 0)
(-0.0728993 0.00106775 0)
(-0.0729915 -0.000155536 0)
(-0.0728538 -0.00139845 0)
(-0.0724836 -0.00265256 0)
(-0.0718799 -0.00390882 0)
(-0.0710435 -0.00515761 0)
(-0.0699766 -0.00638887 0)
(-0.0686833 -0.0075921 0)
(-0.0671694 -0.00875658 0)
(-0.0654428 -0.00987144 0)
(-0.063513 -0.0109258 0)
(-0.0613913 -0.0119089 0)
(-0.0590912 -0.0128104 0)
(-0.0566274 -0.0136202 0)
(-0.0540168 -0.014329 0)
(-0.0512776 -0.0149283 0)
(-0.0484294 -0.0154106 0)
(-0.0454932 -0.0157692 0)
(-0.042491 -0.015999 0)
(-0.0394456 -0.0160962 0)
(-0.0363807 -0.0160585 0)
(-0.03332 -0.0158853 0)
(-0.0302875 -0.0155776 0)
(-0.0273069 -0.0151383 0)
(-0.0244014 -0.0145723 0)
(-0.0215932 -0.013886 0)
(-0.0189036 -0.0130882 0)
(-0.0163521 -0.0121893 0)
(-0.0139565 -0.0112018 0)
(-0.0117323 -0.0101401 0)
(-0.00969267 -0.00902071 0)
(-0.0078479 -0.00786204 0)
(-0.0062053 -0.00668457 0)
(-0.00476891 -0.00551095 0)
(-0.00353928 -0.00436607 0)
(-0.00251337 -0.00327726 0)
(-0.00168441 -0.00227448 0)
(-0.00104188 -0.00139061 0)
(-0.000571365 -0.000661854 0)
(-0.000254404 -0.000127983 0)
(-7.14215e-05 0.00016721 0)
(-5.5454e-06 0.000172748 0)
(-4.35384e-05 0.000410805 0)
(-0.000305652 0.00148094 0)
(-0.000888521 0.00271348 0)
(-0.00174521 0.00404138 0)
(-0.00285236 0.0054124 0)
(-0.00419756 0.00678424 0)
(-0.00576635 0.00812347 0)
(-0.00754299 0.0094045 0)
(-0.00951143 0.0106083 0)
(-0.0116553 0.0117215 0)
(-0.0139578 0.0127348 0)
(-0.0164021 0.0136428 0)
(-0.0189713 0.0144426 0)
(-0.0216485 0.0151336 0)
(-0.024417 0.0157166 0)
(-0.0272603 0.0161933 0)
(-0.0301621 0.0165662 0)
(-0.0331065 0.0168379 0)
(-0.0360778 0.0170114 0)
(-0.0390605 0.0170893 0)
(-0.0420397 0.0170741 0)
(-0.0450003 0.0169679 0)
(-0.0479278 0.0167728 0)
(-0.0508078 0.0164903 0)
(-0.0536258 0.0161216 0)
(-0.0563679 0.0156678 0)
(-0.0590201 0.01513 0)
(-0.0615686 0.014509 0)
(-0.0639998 0.0138059 0)
(-0.0663004 0.0130217 0)
(-0.0684573 0.0121579 0)
(-0.0704578 0.0112162 0)
(-0.0722894 0.010199 0)
(-0.0739404 0.00910892 0)
(-0.0753994 0.00794955 0)
(-0.0766557 0.00672503 0)
(-0.0776995 0.0054403 0)
(-0.0785218 0.00410111 0)
(-0.0791147 0.00271408 0)
(-0.0794713 0.00128664 0)
(-0.079586 -0.000172876 0)
(-0.0794546 -0.00165535 0)
(-0.0790744 -0.00315086 0)
(-0.0784441 -0.00464875 0)
(-0.0775642 -0.00613773 0)
(-0.076437 -0.00760594 0)
(-0.0750666 -0.0090411 0)
(-0.073459 -0.0104306 0)
(-0.0716221 -0.0117617 0)
(-0.0695657 -0.0130215 0)
(-0.0673016 -0.0141976 0)
(-0.0648436 -0.0152775 0)
(-0.0622073 -0.0162496 0)
(-0.0594101 -0.0171028 0)
(-0.0564711 -0.0178271 0)
(-0.0534109 -0.0184134 0)
(-0.0502515 -0.0188541 0)
(-0.0470161 -0.0191428 0)
(-0.0437291 -0.019275 0)
(-0.0404152 -0.019248 0)
(-0.0370998 -0.0190607 0)
(-0.0338085 -0.0187143 0)
(-0.0305666 -0.0182121 0)
(-0.0273989 -0.0175594 0)
(-0.0243296 -0.0167641 0)
(-0.0213815 -0.0158359 0)
(-0.0185759 -0.0147871 0)
(-0.0159322 -0.0136323 0)
(-0.0134678 -0.0123883 0)
(-0.0111972 -0.011074 0)
(-0.00913246 -0.00971092 0)
(-0.00728226 -0.00832271 0)
(-0.0056521 -0.0069354 0)
(-0.00424391 -0.00557744 0)
(-0.00305598 -0.00427984 0)
(-0.00208291 -0.00307629 0)
(-0.00131558 -0.0020034 0)
(-0.000741016 -0.00110096 0)
(-0.000342172 -0.000412144 0)
(-0.000102319 1.62655e-05 0)
(-1.0167e-05 0.000130922 0)
(-5.03855e-05 0.000576094 0)
(-0.000349712 0.00195635 0)
(-0.00101075 0.00348051 0)
(-0.00197626 0.00508257 0)
(-0.00321657 0.00671072 0)
(-0.0047152 0.00832274 0)
(-0.00645407 0.00988511 0)
(-0.00841427 0.0113721 0)
(-0.0105771 0.0127644 0)
(-0.012924 0.0140485 0)
(-0.0154363 0.0152152 0)
(-0.0180958 0.0162589 0)
(-0.0208842 0.0171771 0)
(-0.0237835 0.0179691 0)
(-0.026776 0.0186359 0)
(-0.0298444 0.0191797 0)
(-0.0329715 0.0196031 0)
(-0.0361408 0.0199093 0)
(-0.0393357 0.0201012 0)
(-0.0425403 0.0201819 0)
(-0.0457387 0.0201542 0)
(-0.0489153 0.0200205 0)
(-0.0520548 0.0197828 0)
(-0.0551422 0.019443 0)
(-0.0581624 0.0190024 0)
(-0.0611006 0.0184625 0)
(-0.0639423 0.0178242 0)
(-0.0666729 0.0170888 0)
(-0.0692782 0.0162574 0)
(-0.0717442 0.0153313 0)
(-0.0740572 0.0143124 0)
(-0.0762037 0.0132027 0)
(-0.0781707 0.012005 0)
(-0.0799458 0.0107226 0)
(-0.081517 0.00935955 0)
(-0.0828732 0.00792086 0)
(-0.0840038 0.00641226 0)
(-0.0848995 0.00484049 0)
(-0.0855517 0.00321324 0)
(-0.0859532 0.00153916 0)
(-0.0860979 -0.000172115 0)
(-0.0859812 -0.00191 0)
(-0.0855999 -0.00366304 0)
(-0.0849526 -0.00541891 0)
(-0.0840396 -0.00716458 0)
(-0.0828629 -0.00888636 0)
(-0.0814264 -0.0105701 0)
(-0.0797361 -0.0122011 0)
(-0.0778 -0.0137648 0)
(-0.075628 -0.0152463 0)
(-0.0732323 -0.016631 0)
(-0.0706268 -0.0179047 0)
(-0.0678276 -0.0190537 0)
(-0.0648528 -0.0200653 0)
(-0.0617221 -0.0209276 0)
(-0.058457 -0.0216302 0)
(-0.0550806 -0.0221639 0)
(-0.0516172 -0.0225214 0)
(-0.0480921 -0.0226972 0)
(-0.0445318 -0.0226879 0)
(-0.0409631 -0.022492 0)
(-0.037413 -0.0221109 0)
(-0.0339086 -0.0215479 0)
(-0.0304765 -0.0208092 0)
(-0.0271426 -0.0199035 0)
(-0.0239316 -0.0188419 0)
(-0.0208666 -0.0176386 0)
(-0.0179689 -0.0163099 0)
(-0.0152577 -0.0148751 0)
(-0.0127493 -0.013356 0)
(-0.0104574 -0.011777 0)
(-0.00839258 -0.0101649 0)
(-0.00656181 -0.00854927 0)
(-0.00496864 -0.00696213 0)
(-0.00361293 -0.0054382 0)
(-0.00249079 -0.00401487 0)
(-0.00159468 -0.00273242 0)
(-0.000913138 -0.00163415 0)
(-0.000430604 -0.000766415 0)
(-0.000133102 -0.00017875 0)
(-1.46545e-05 7.34773e-05 0)
(-5.69853e-05 0.000763481 0)
(-0.00039249 0.00249198 0)
(-0.00112985 0.00434014 0)
(-0.00220199 0.00624352 0)
(-0.00357312 0.0081513 0)
(-0.00522282 0.010022 0)
(-0.00712935 0.0118225 0)
(-0.00927064 0.0135275 0)
(-0.0116253 0.015118 0)
(-0.0141724 0.0165807 0)
(-0.0168917 0.0179067 0)
(-0.019763 0.0190906 0)
(-0.022767 0.0201303 0)
(-0.0258844 0.0210255 0)
(-0.0290966 0.0217775 0)
(-0.0323854 0.0223888 0)
(-0.0357329 0.0228626 0)
(-0.0391219 0.0232021 0)
(-0.0425351 0.0234109 0)
(-0.045956 0.0234922 0)
(-0.0493682 0.0234491 0)
(-0.0527554 0.0232842 0)
(-0.0561017 0.0229998 0)
(-0.0593915 0.0225978 0)
(-0.0626091 0.02208 0)
(-0.0657393 0.0214477 0)
(-0.0687667 0.0207023 0)
(-0.0716763 0.019845 0)
(-0.0744533 0.0188773 0)
(-0.0770831 0.0178007 0)
(-0.0795512 0.0166174 0)
(-0.0818438 0.0153298 0)
(-0.0839472 0.0139411 0)
(-0.0858484 0.0124553 0)
(-0.0875348 0.010877 0)
(-0.0889947 0.00921193 0)
(-0.0902172 0.00746672 0)
(-0.0911921 0.0056491 0)
(-0.0919105 0.00376785 0)
(-0.0923646 0.00183288 0)
(-0.0925478 -0.000144839 0)
(-0.092455 -0.00215325 0)
(-0.0920827 -0.0041793 0)
(-0.091429 -0.00620898 0)
(-0.0904937 -0.00822743 0)
(-0.0892787 -0.0102191 0)
(-0.0877875 -0.0121678 0)
(-0.086026 -0.0140569 0)
(-0.0840019 -0.0158697 0)
(-0.0817253 -0.0175892 0)
(-0.0792083 -0.0191988 0)
(-0.0764652 -0.0206821 0)
(-0.0735123 -0.0220236 0)
(-0.0703681 -0.0232084 0)
(-0.067053 -0.0242229 0)
(-0.0635892 -0.0250549 0)
(-0.0600007 -0.025694 0)
(-0.0563128 -0.0261313 0)
(-0.0525522 -0.0263605 0)
(-0.0487464 -0.0263771 0)
(-0.044924 -0.0261796 0)
(-0.0411135 -0.0257688 0)
(-0.0373439 -0.0251486 0)
(-0.0336434 -0.0243254 0)
(-0.0300399 -0.023309 0)
(-0.02656 -0.022112 0)
(-0.023229 -0.0207498 0)
(-0.02007 -0.0192413 0)
(-0.0171043 -0.0176079 0)
(-0.0143502 -0.0158742 0)
(-0.0118234 -0.0140676 0)
(-0.00953622 -0.0122183 0)
(-0.00749758 -0.0103593 0)
(-0.0057128 -0.00852625 0)
(-0.00418345 -0.00675763 0)
(-0.00290733 -0.00509456 0)
(-0.00187859 -0.00358097 0)
(-0.00108736 -0.0022636 0)
(-0.000519531 -0.00119194 0)
(-0.000163741 -0.000418129 0)
(-1.90179e-05 5.54224e-07 0)
(-6.33496e-05 0.000972284 0)
(-0.000433958 0.00308621 0)
(-0.00124562 0.00529018 0)
(-0.00242183 0.00752171 0)
(-0.00392095 0.00973149 0)
(-0.0057187 0.0118792 0)
(-0.0077898 0.0139329 0)
(-0.010109 0.015868 0)
(-0.0126522 0.0176662 0)
(-0.0153962 0.0193149 0)
(-0.0183187 0.0208058 0)
(-0.0213982 0.0221342 0)
(-0.0246137 0.0232984 0)
(-0.027945 0.0242987 0)
(-0.0313724 0.0251369 0)
(-0.034877 0.0258161 0)
(-0.0384402 0.0263396 0)
(-0.042044 0.0267115 0)
(-0.0456706 0.0269354 0)
(-0.0493029 0.027015 0)
(-0.0529238 0.0269536 0)
(-0.0565169 0.026754 0)
(-0.0600655 0.0264189 0)
(-0.0635535 0.0259504 0)
(-0.0669649 0.0253503 0)
(-0.0702836 0.0246201 0)
(-0.0734941 0.0237613 0)
(-0.0765807 0.0227755 0)
(-0.0795281 0.0216642 0)
(-0.0823211 0.0204293 0)
(-0.0849448 0.0190732 0)
(-0.0873847 0.0175987 0)
(-0.0896267 0.0160096 0)
(-0.0916571 0.0143102 0)
(-0.0934629 0.012506 0)