/*--------------------------------*- C++ -*----------------------------------*\
| =========                 |                                                 |
| \\      /  F ield         | OpenFOAM: The Open Source CFD Toolbox           |
|  \\    /   O peration     | Version:  2.1.1                                 |
|   \\  /    A nd           | Web:      www.OpenFOAM.org                      |
|    \\/     M anipulation  |                                                 |
\*---------------------------------------------------------------------------*/
FoamFile
{
    version     2.0;
    format      ascii;
    class       volScalarField;
    location    "2";
    object      p;
}
// * * * * * * * * * * * * * * * * * * * * * * * * * * * * * * * * * * * * * //

dimensions      [0 2 -2 0 0 0 0];

internalField   nonuniform List<scalar> 
1681
(
1.41618e-08
-0.000133883
-0.000431739
-0.0008207
-0.00123064
-0.00161616
-0.00194703
-0.00220447
-0.00237759
-0.0024604
-0.00244978
-0.00234412
-0.00214273
-0.0018456
-0.00145366
-0.000969123
-0.000396098
0.000258844
0.000986132
0.00177279
0.00260226
0.00345445
0.00430611
0.00513159
0.00590384
0.00659579
0.00718191
0.00763993
0.00795251
0.00810881
0.00810572
0.00794876
0.0076524
0.00724003
0.00674338
0.00620164
0.00566039
0.00517034
0.00478485
0.00456112
0.00452731
0.000133119
-2.87142e-06
-0.0002437
-0.0005449
-0.00086269
-0.00116352
-0.0014235
-0.00162648
-0.00176199
-0.00182342
-0.00180674
-0.00170946
-0.00153021
-0.00126852
-0.000924954
-0.000501424
-1.57984e-06
0.00056872
0.00120101
0.00188388
0.00260288
0.00334065
0.00407711
0.00479022
0.00545691
0.00605416
0.00656045
0.00695714
0.00723002
0.00737051
0.00737678
0.00725437
0.00701645
0.00668352
0.0062828
0.00584719
0.0054139
0.00502096
0.00471008
0.00452357
0.00449281
0.000436474
0.000233715
-1.24251e-05
-0.000284335
-0.000560511
-0.000817164
-0.00103661
-0.00120669
-0.00131904
-0.00136802
-0.00134984
-0.00126189
-0.00110248
-0.00087068
-0.000566526
-0.000191261
0.000252263
0.00075918
0.00132223
0.00193147
0.00257413
0.00323477
0.00389535
0.00453606
0.005136
0.00567431
0.00613143
0.00649047
0.00673855
0.006868
0.00687736
0.00677189
0.00656368
0.00627133
0.00591911
0.00553576
0.00515297
0.0048031
0.00451837
0.00433305
0.00427421
0.000843001
0.000534542
0.000244979
-3.33338e-05
-0.000299788
-0.000538614
-0.000738002
-0.000890407
-0.000990527
-0.00103453
-0.00101955
-0.000943342
-0.000804066
-0.000600365
-0.000331565
1.98775e-06
0.000398511
0.000854353
0.00136359
0.00191768
0.00250531
0.00311249
0.00372253
0.00431685
0.00487563
0.00537887
0.00580763
0.0061454
0.00637946
0.00650206
0.00651141
0.00641217
0.0062155
0.00593862
0.00560387
0.00523733
0.00486722
0.00452224
0.00423008
0.0040155
0.00389542
0.00128348
0.000853519
0.000502988
0.000200793
-7.2398e-05
-0.000307859
-0.000499309
-0.000643921
-0.00073971
-0.000784962
-0.000778027
-0.00071714
-0.000600405
-0.000425969
-0.000192328
0.000101253
0.000454262
0.000864443
0.00132732
0.00183582
0.00238
0.00294701
0.00352122
0.00408475
0.00461819
0.00510162
0.00551588
0.00584402
0.00607261
0.00619314
0.00620291
0.00610565
0.00591154
0.00563663
0.00530188
0.00493154
0.00455153
0.00418818
0.00386657
0.00360144
0.00339771
0.00170612
0.00114949
0.00072901
0.00039197
0.000100597
-0.000142497
-0.000336057
-0.000481759
-0.00058088
-0.000633856
-0.000640287
-0.000598917
-0.000507756
-0.00036437
-0.000166298
8.8437e-05
0.000400764
0.000769973
0.00119315
0.0016647
0.00217601
0.00271521
0.00326743
0.00381508
0.00433859
0.00481748
0.00523166
0.00556288
0.0057963
0.00592185
0.00593537
0.00583923
0.00564241
0.00535994
0.00501178
0.00462115
0.00421274
0.00381196
0.00344284
0.0031113
0.00281057
0.00206803
0.00138586
0.000891869
0.000513572
0.000196311
-6.26354e-05
-0.000266526
-0.000421178
-0.000530907
-0.000598152
-0.000623658
-0.000606581
-0.000544732
-0.000434971
-0.000273733
-5.76363e-05
0.000215851
0.000547715
0.000936725
0.00137884
0.00186675
0.00238953
0.00293284
0.00347904
0.00400801
0.00449813
0.00492769
0.00527644
0.00552727
0.00566782
0.00569173
0.00559946
0.00539846
0.00510272
0.00473153
0.00430774
0.00385585
0.00340171
0.00297001
0.00255943
0.00215301
0.00233266
0.00152966
0.000962335
0.000539935
0.000192238
-8.8257e-05
-0.000308879
-0.000479199
-0.000606261
-0.00069426
-0.000744882
-0.000757522
-0.000729622
-0.000657174
-0.000535338
-0.000359151
-0.000124297
0.000172084
0.000530607
0.000948922
0.00142111
0.00193725
0.0024834
0.00304177
0.00359132
0.00410887
0.00457047
0.00495314
0.00523669
0.00540556
0.00545034
0.00536888
0.00516659
0.00485618
0.00445645
0.00399043
0.00348337
0.00296289
0.00245589
0.00195547
0.00143602
0.00246797
0.00155088
0.00091272
0.000445749
6.52478e-05
-0.000240689
-0.000483107
-0.000674962
-0.000825695
-0.00094097
-0.00102316
-0.00107169
-0.00108341
-0.00105326
-0.000974943
-0.000841703
-0.000647231
-0.000386566
-5.70154e-05
0.000340985
0.000803121
0.00132061
0.00188005
0.0024634
0.00304858
0.0036105
0.00412243
0.00455791
0.00489276
0.00510724
0.00518785
0.00512885
0.00493288
0.00461092
0.00418125
0.00366749
0.00309649
0.00249889
0.00190534
0.0013047
0.000663788
0.00244509
0.00142194
0.000716947
0.000206449
-0.000207822
-0.000541924
-0.000810343
-0.00102908
-0.00120967
-0.00135895
-0.00147972
-0.00157118
-0.00162942
-0.00164809
-0.00161922
-0.00153405
-0.00138402
-0.00116179
-0.000862269
-0.000483646
-2.82905e-05
0.000496485
0.00107804
0.00169828
0.00233408
0.00295815
0.00354058
0.00405068
0.00445932
0.00474135
0.00487795
0.0048585
0.00468184
0.00435647
0.00389986
0.00333645
0.00269543
0.00201166
0.001321
0.000609153
-0.000164075
0.00223767
0.00111754
0.000350722
-0.000201303
-0.000649442
-0.00101373
-0.00131187
-0.00156263
-0.00177933
-0.00196972
-0.00213681
-0.00227933
-0.00239239
-0.00246818
-0.00249681
-0.00246729
-0.0023685
-0.00219039
-0.00192506
-0.00156799
-0.00111911
-0.000583771
2.66391e-05
0.000694312
0.00139524
0.00209998
0.00277499
0.00338469
0.00389393
0.00427081
0.0044896
0.00453323
0.0043952
0.00408046
0.003605
0.00299406
0.00227977
0.00150231
0.000704321
-0.000130971
-0.00105067
0.00182169
0.000614638
-0.000208253
-0.000799204
-0.00128082
-0.00167696
-0.00200836
-0.00229628
-0.00255561
-0.00279478
-0.00301678
-0.00321971
-0.00339752
-0.00354072
-0.00363734
-0.00367384
-0.00363627
-0.00351144
-0.00328815
-0.00295859
-0.00251958
-0.0019738
-0.00133071
-0.000607184
0.000172336
0.000976388
0.00176769
0.00250511
0.0031464
0.00365139
0.00398555
0.0041233
0.00405085
0.00376788
0.00328783
0.00263635
0.00184882
0.000971913
5.65785e-05
-0.00091599
-0.00200009
0.0011756
-0.000107372
-0.00097998
-0.00160689
-0.00212134
-0.00255087
-0.00291907
-0.00324949
-0.00355834
-0.0038546
-0.00414107
-0.00441509
-0.00466928
-0.00489236
-0.00507004
-0.00518604
-0.00522321
-0.00516475
-0.00499562
-0.004704
-0.00428276
-0.00373101
-0.00305528
-0.00227065
-0.00140119
-0.000479884
0.000452309
0.00134831
0.0021577
0.00283042
0.00332091
0.00359258
0.00362169
0.0034003
0.00293758
0.00225861
0.00140211
0.000422229
-0.000620088
-0.00174542
-0.00301586
0.000280639
-0.0010663
-0.00198178
-0.00264144
-0.00318798
-0.00365243
-0.00406107
-0.00443954
-0.00480524
-0.00516754
-0.00552896
-0.00588601
-0.00622992
-0.00654751
-0.00682203
-0.00703422
-0.00716339
-0.00718869
-0.00709058
-0.00685243
-0.0064622
-0.00591425
-0.00521101
-0.00436445
-0.00339717
-0.00234275
-0.00124535
-0.000158128
0.000859515
0.0017459
0.00244206
0.00289728
0.00307452
0.00295504
0.00254103
0.00185542
0.000939738
-0.0001435
-0.00132156
-0.00261662
-0.00409937
-0.000878688
-0.00227677
-0.00322788
-0.00391694
-0.00449474
-0.00499564
-0.00544843
-0.00588066
-0.0063108
-0.00674854
-0.00719615
-0.00764926
-0.00809773
-0.00852642
-0.00891607
-0.00924425
-0.00948642
-0.00961725
-0.00961204
-0.00944846
-0.00910846
-0.00858037
-0.00786099
-0.00695762
-0.00588976
-0.00469022
-0.00340536
-0.00209403
-0.000825125
0.000326589
0.00128613
0.00198514
0.00236916
0.00240433
0.00208212
0.00142055
0.000462805
-0.000719707
-0.00204058
-0.00352343
-0.00524839
-0.00231412
-0.00374983
-0.004729
-0.00544396
-0.00605212
-0.00659088
-0.0070914
-0.00758299
-0.00808514
-0.00860789
-0.00915325
-0.00971611
-0.010285
-0.0108429
-0.011368
-0.0118347
-0.0122143
-0.0124766
-0.012591
-0.0125288
-0.0122647
-0.0117795
-0.0110627
-0.010115
-0.00895074
-0.00760006
-0.00610983
-0.00454358
-0.00297954
-0.00150667
-0.000218404
0.000795412
0.00145796
0.00171479
0.00154147
0.000947006
-2.60983e-05
-0.00129757
-0.00276543
-0.00445456
-0.00645529
-0.00403315
-0.00549254
-0.006492
-0.00722924
-0.00786661
-0.0084443
-0.00899569
-0.00955174
-0.0101329
-0.0107498
-0.0114042
-0.0120905
-0.0127959
-0.0135019
-0.0141842
-0.0148137
-0.0153578
-0.0157808
-0.0160461
-0.0161174
-0.0159611
-0.0155491
-0.0148617
-0.0138906
-0.0126429
-0.0111433
-0.00943692
-0.00758994
-0.00568901
-0.00383754
-0.00214948
-0.000739978
0.000286228
0.000847446
0.000896421
0.000427221
-0.000522269
-0.00186389
-0.00347844
-0.00539181
-0.00770514
-0.00603864
-0.00750772
-0.00851967
-0.00927535
-0.00994035
-0.0105574
-0.0111618
-0.0117863
-0.0124524
-0.0131712
-0.0139448
-0.0147671
-0.0156246
-0.0164971
-0.0173582
-0.0181758
-0.0189127
-0.0195282
-0.0199788
-0.02022
-0.020209
-0.0199073
-0.0192841
-0.0183201
-0.017012
-0.0153761
-0.0134525
-0.0113075
-0.00903375
-0.00674843
-0.00458699
-0.0026933
-0.00120582
-0.000241258
0.000121599
-0.000146359
-0.00101797
-0.00239972
-0.00415413
-0.00630794
-0.00897336
-0.0083286
-0.00979385
-0.0108106
-0.0115807
-0.012271
-0.0129265
-0.0135846
-0.0142796
-0.0150343
-0.0158606
-0.0167612
-0.0177299
-0.0187529
-0.0198088
-0.0208691
-0.0218988
-0.0228569
-0.023697
-0.0243686
-0.0248189
-0.0249949
-0.0248463
-0.0243294
-0.0234119
-0.0220769
-0.0203292
-0.0182
-0.0157516
-0.0130793
-0.0103118
-0.00760556
-0.0051355
-0.00307924
-0.00159696
-0.000809494
-0.000780003
-0.00150103
-0.00287858
-0.00475699
-0.00716402
-0.0102229
-0.0108961
-0.0123452
-0.0133595
-0.0141394
-0.0148517
-0.0155431
-0.0162531
-0.0170177
-0.0178613
-0.0187973
-0.0198291
-0.0209511
-0.0221494
-0.0234019
-0.0246786
-0.0259419
-0.027147
-0.0282422
-0.0291701
-0.029869
-0.0302751
-0.0303258
-0.0299632
-0.029139
-0.0278209
-0.0259981
-0.0236889
-0.0209466
-0.0178646
-0.0145788
-0.0112644
-0.00812773
-0.00538984
-0.00326277
-0.00192133
-0.00147639
-0.00195273
-0.00326404
-0.00523865
-0.00790628
-0.0114006
-0.0137297
-0.0151521
-0.0161575
-0.0169423
-0.0176716
-0.0183937
-0.0191503
-0.0199795
-0.020908
-0.0219508
-0.0231128
-0.0243898
-0.025768
-0.0272253
-0.0287306
-0.0302442
-0.0317177
-0.0330944
-0.0343102
-0.0352946
-0.035973
-0.0362695
-0.0361112
-0.0354326
-0.034183
-0.0323331
-0.0298836
-0.0268736
-0.0233887
-0.0195659
-0.0155944
-0.0117099
-0.00817877
-0.00527211
-0.00323122
-0.00223087
-0.00234471
-0.00350662
-0.00553438
-0.00846214
-0.0124334
-0.0168136
-0.018202
-0.019193
-0.0199772
-0.0207163
-0.0214604
-0.0222537
-0.0231372
-0.0241402
-0.0252806
-0.0265655
-0.0279922
-0.0295482
-0.0312117
-0.032951
-0.0347247
-0.0364812
-0.0381594
-0.0396886
-0.0409898
-0.0419778
-0.0425636
-0.0426583
-0.0421785
-0.0410537
-0.0392327
-0.0366948
-0.0334597
-0.0295982
-0.0252409
-0.020584
-0.015887
-0.0114603
-0.00763872
-0.00474171
-0.00302586
-0.0026345
-0.00353963
-0.00555869
-0.00873547
-0.0132227
-0.0201292
-0.0214804
-0.022453
-0.02323
-0.0239691
-0.0247219
-0.0255361
-0.0264564
-0.0275162
-0.0287369
-0.030129
-0.0316922
-0.0334157
-0.0352786
-0.037249
-0.0392841
-0.0413298
-0.0433207
-0.0451801
-0.0468211
-0.048148
-0.0490591
-0.0494498
-0.0492178
-0.048274
-0.0465415
-0.0439753
-0.0405708
-0.0363772
-0.0315107
-0.0261647
-0.020614
-0.0152074
-0.010344
-0.00643037
-0.00382307
-0.00275947
-0.00327382
-0.00519994
-0.00860081
-0.0136386
-0.0236556
-0.0249723
-0.0259247
-0.0266869
-0.027412
-0.0281543
-0.0289658
-0.0298968
-0.0309864
-0.0322609
-0.0337352
-0.0354124
-0.037284
-0.0393303
-0.0415196
-0.0438081
-0.0461394
-0.0484442
-0.0506401
-0.0526329
-0.0543172
-0.0555789
-0.0562991
-0.0563591
-0.0556427
-0.0540545
-0.0515217
-0.0480109
-0.0435439
-0.0382136
-0.0322003
-0.0257823
-0.019337
-0.0133227
-0.00823731
-0.00455338
-0.00262883
-0.00259059
-0.00431373
-0.00789648
-0.0135129
-0.0273725
-0.0286649
-0.0295979
-0.0303357
-0.0310279
-0.0317324
-0.0325082
-0.0334135
-0.034495
-0.0357862
-0.0373075
-0.0390662
-0.0410568
-0.0432612
-0.0456479
-0.0481722
-0.0507754
-0.0533845
-0.055912
-0.0582564
-0.0603035
-0.0619279
-0.0629966
-0.0633734
-0.0629242
-0.0615276
-0.0590837
-0.055529
-0.050853
-0.0451183
-0.0384811
-0.0312102
-0.023697
-0.0164483
-0.0100511
-0.00510478
-0.00211381
-0.00133359
-0.00271482
-0.00641633
-0.0126302
-0.0312618
-0.0325506
-0.0334679
-0.0341689
-0.034802
-0.0354316
-0.0361267
-0.0369572
-0.0379805
-0.0392396
-0.0407619
-0.0425598
-0.0446313
-0.0469595
-0.0495135
-0.0522471
-0.0550993
-0.0579932
-0.0608362
-0.06352
-0.0659219
-0.0679061
-0.0693268
-0.0700319
-0.0698692
-0.0686943
-0.0663806
-0.0628336
-0.0580086
-0.0519322
-0.0447274
-0.0366397
-0.0280581
-0.0195214
-0.0116952
-0.00530899
-0.00103593
0.000701419
-0.000167586
-0.00389996
-0.0107189
-0.0353115
-0.0366308
-0.0375396
-0.0381866
-0.0387245
-0.0392284
-0.0397833
-0.0404753
-0.041377
-0.042543
-0.0440098
-0.0457956
-0.0479016
-0.0503124
-0.0529965
-0.055906
-0.0589768
-0.0621276
-0.0652603
-0.0682602
-0.0709961
-0.0733226
-0.0750819
-0.0761078
-0.0762306
-0.0752862
-0.073122
-0.0696144
-0.0646839
-0.0583185
-0.0506015
-0.0417434
-0.0321137
-0.0222628
-0.0129167
-0.00492841
0.000845825
0.00377839
0.00362556
-2.08179e-05
-0.00743891
-0.0395208
-0.0409222
-0.0418328
-0.0424005
-0.0427925
-0.0431027
-0.0434394
-0.0439125
-0.0446142
-0.0456144
-0.0469596
-0.0486745
-0.0507631
-0.0532103
-0.0559832
-0.0590308
-0.0622848
-0.0656589
-0.0690488
-0.0723326
-0.0753711
-0.0780091
-0.0800779
-0.0813982
-0.0817853
-0.0810542
-0.0790319
-0.0755668
-0.0705467
-0.063921
-0.0557301
-0.0461412
-0.0354896
-0.024315
-0.0133804
-0.00364535
0.00384795
0.00823439
0.009038
0.00562854
-0.00236794
-0.0439074
-0.0454659
-0.0463898
-0.0468389
-0.0470131
-0.0470376
-0.0470559
-0.0472102
-0.0476187
-0.0483692
-0.0495196
-0.0511001
-0.0531165
-0.0555525
-0.0583717
-0.0615185
-0.0649189
-0.0684801
-0.0720906
-0.0756206
-0.0789222
-0.0818306
-0.0841662
-0.0857373
-0.0863445
-0.0857866
-0.0838695
-0.0804171
-0.0752874
-0.0683936
-0.0597335
-0.0494273
-0.0377645
-0.0252555
-0.0126728
-0.00105675
0.00837379
0.0144941
0.0165358
0.0135555
0.00501762
-0.0485199
-0.0503404
-0.0512858
-0.0515529
-0.0514054
-0.0510205
-0.0505923
-0.0503068
-0.0503141
-0.0507221
-0.0515998
-0.0529815
-0.0548721
-0.0572516
-0.0600775
-0.0632873
-0.066799
-0.0705118
-0.0743055
-0.0780414
-0.081562
-0.0846925
-0.0872421
-0.0890068
-0.0897732
-0.0893243
-0.0874472
-0.0839434
-0.0786442
-0.0714299
-0.0622586
-0.0512033
-0.0385023
-0.0246211
-0.0103161
0.00332239
0.0149205
0.023085
0.0266984
0.0243935
0.0153697
-0.053459
-0.0556834
-0.056645
-0.0566244
-0.0560036
-0.055042
-0.0540055
-0.0531362
-0.0526209
-0.0525881
-0.0531153
-0.0542374
-0.0559544
-0.0582385
-0.061038
-0.0642803
-0.0678732
-0.0717059
-0.0756474
-0.079549
-0.0832429
-0.0865431
-0.0892471
-0.0911383
-0.0919892
-0.0915669
-0.0896405
-0.0859908
-0.0804238
-0.0727906
-0.0630125
-0.0511178
-0.0372921
-0.0219465
-0.00579939
0.0100416
0.0240774
0.0346502
0.0402454
0.0389399
0.0295118
-0.0589151
-0.061727
-0.0626627
-0.0621766
-0.0608585
-0.0590948
-0.0572478
-0.0556269
-0.0544574
-0.0538848
-0.0539893
-0.0547997
-0.0563055
-0.0584659
-0.0612159
-0.0644689
-0.0681202
-0.072046
-0.0761041
-0.0801338
-0.0839557
-0.0873719
-0.0901676
-0.0921126
-0.0929647
-0.0924748
-0.0903932
-0.0864798
-0.0805165
-0.0723257
-0.0617941
-0.0489071
-0.0337979
-0.0168168
0.00137294
0.0196778
0.0365086
0.0499568
0.0580688
0.0582123
0.0485142
-0.0652387
-0.068856
-0.0696391
-0.0683852
-0.0660378
-0.0631692
-0.0602623
-0.0576995
-0.0557391
-0.0545336
-0.054155
-0.0546164
-0.0558885
-0.0579111
-0.0606003
-0.0638529
-0.0675479
-0.0715473
-0.0756956
-0.0798191
-0.0837259
-0.0872057
-0.0900302
-0.0919551
-0.0927228
-0.0920665
-0.0897171
-0.0854118
-0.0789068
-0.0699941
-0.0585243
-0.0444387
-0.0278151
-0.00893539
0.0116088
0.0327704
0.05291
0.0698892
0.0812718
0.0835336
0.0738299
-0.0730762
-0.0777047
-0.0780248
-0.0754899
-0.0716211
-0.067244
-0.0629752
-0.0592616
-0.0563765
-0.0544593
-0.0535567
-0.0536525
-0.0546874
-0.0565746
-0.0592063
-0.0624584
-0.0661916
-0.0702518
-0.0744691
-0.0786562
-0.0826084
-0.0861023
-0.0888961
-0.090731
-0.0913331
-0.0904173
-0.0876931
-0.0828729
-0.0756839
-0.0658829
-0.0532781
-0.0377586
-0.0193365
0.00178834
0.0251247
0.049713
0.0739204
0.0954098
0.111205
0.116665
0.107557
-0.0836456
-0.0893167
-0.088473
-0.0837905
-0.077678
-0.0712626
-0.0652758
-0.0601932
-0.0562643
-0.0535827
-0.0521443
-0.0518845
-0.0527028
-0.0544767
-0.0570695
-0.0603328
-0.0641076
-0.0682227
-0.0724934
-0.0767192
-0.0806824
-0.0841472
-0.0868588
-0.0885439
-0.0889126
-0.0876613
-0.0844767
-0.0790445
-0.0710581
-0.0602321
-0.0463218
-0.0291481
-0.00863502
0.0151313
0.0418013
0.0705756
0.0999374
0.127425
0.149461
0.160011
0.152953
-0.0993137
-0.105395
-0.101856
-0.0935815
-0.0841892
-0.0750621
-0.0669586
-0.060301
-0.0552469
-0.0517933
-0.0498503
-0.0492832
-0.0499359
-0.0516425
-0.054233
-0.0575331
-0.0613634
-0.065536
-0.0698524
-0.0740997
-0.0780491
-0.0814534
-0.0840462
-0.0855415
-0.0856343
-0.0840037
-0.0803139
-0.0742228
-0.065386
-0.0534686
-0.0381589
-0.0191877
0.00364337
0.0304136
0.0609941
0.0948622
0.130784
0.166456
0.197712
0.216846
0.215267
-0.124755
-0.128659
-0.119167
-0.104953
-0.0908527
-0.0782095
-0.0675954
-0.0592237
-0.0530489
-0.0488989
-0.0465543
-0.0457853
-0.046367
-0.0480849
-0.0507338
-0.0541145
-0.0580286
-0.0622743
-0.0666414
-0.0709075
-0.074835
-0.0781683
-0.080632
-0.0819303
-0.0817467
-0.0797464
-0.0755657
-0.0688449
-0.0591987
-0.0462362
-0.0295669
-0.0088074
0.0164055
0.046388
0.0813462
0.121222
0.165394
0.212133
0.257268
0.29127
0.302516
-0.169205
-0.163131
-0.141275
-0.117549
-0.0968654
-0.0798348
-0.0664353
-0.0563883
-0.0492704
-0.0446435
-0.0421104
-0.0413249
-0.0419872
-0.0438345
-0.0466311
-0.0501576
-0.0542023
-0.0585541
-0.0629957
-0.0672993
-0.0712226
-0.0745053
-0.0768671
-0.0780066
-0.0776019
-0.0753165
-0.0707342
-0.063508
-0.0532104
-0.0393948
-0.0215871
0.000726477
0.0281127
0.0612039
0.100693
0.147262
0.201411
0.262869
0.328243
0.387673
0.427062
-0.253609
-0.212997
-0.167112
-0.129314
-0.10008
-0.0781258
-0.0621584
-0.0509231
-0.0433759
-0.0387233
-0.0363674
-0.0358489
-0.0368058
-0.0389426
-0.0420061
-0.0457687
-0.0500146
-0.0545311
-0.0591006
-0.0634953
-0.0674729
-0.0707731
-0.0731154
-0.0741963
-0.073687
-0.0712276
-0.0664861
-0.0590031
-0.0483488
-0.0340425
-0.0155385
0.00779807
0.0367396
0.0722737
0.115712
0.168815
0.233931
0.313575
0.407291
0.510212
0.61752
-0.437976
-0.276145
-0.182382
-0.127993
-0.0916283
-0.0669332
-0.0506081
-0.0400244
-0.0334239
-0.0297333
-0.0282584
-0.028512
-0.0301324
-0.0328355
-0.0363826
-0.0405598
-0.0451634
-0.0499908
-0.054833
-0.0594696
-0.0636648
-0.067164
-0.0696917
-0.0709496
-0.0706144
-0.0683308
-0.0637411
-0.0564152
-0.0459068
-0.0317165
-0.0132654
0.0101442
0.0394042
0.0757404
0.120965
0.177933
0.251357
0.348527
0.478311
0.660994
0.939887
-0.805548
-0.338339
-0.154448
-0.0907376
-0.0576837
-0.0377273
-0.0262838
-0.019963
-0.016739
-0.0156396
-0.0161568
-0.0179634
-0.0208181
-0.0245249
-0.0289095
-0.0338039
-0.0390391
-0.0444381
-0.0498123
-0.0549577
-0.059652
-0.0636527
-0.0666945
-0.0684888
-0.0687238
-0.0670692
-0.0631373
-0.056534
-0.0468228
-0.0335157
-0.0160528
0.0062365
0.0342055
0.0690305
0.1125
0.167667
0.240497
0.343887
0.506466
0.810225
1.40137
)
;

boundaryField
{
    movingWall
    {
        type            zeroGradient;
    }
    fixedWalls
    {
        type            zeroGradient;
    }
    frontAndBack
    {
        type            empty;
    }
}


// ************************************************************************* //
