/*--------------------------------*- C++ -*----------------------------------*\
| =========                 |                                                 |
| \\      /  F ield         | OpenFOAM: The Open Source CFD Toolbox           |
|  \\    /   O peration     | Version:  2.1.1                                 |
|   \\  /    A nd           | Web:      www.OpenFOAM.org                      |
|    \\/     M anipulation  |                                                 |
\*---------------------------------------------------------------------------*/
FoamFile
{
    version     2.0;
    format      ascii;
    class       surfaceScalarField;
    location    "2";
    object      phi;
}
// * * * * * * * * * * * * * * * * * * * * * * * * * * * * * * * * * * * * * //

dimensions      [0 3 -1 0 0 0 0];

internalField   nonuniform List<scalar> 
3280
(
6.42995e-10
-6.43032e-10
9.71315e-10
-3.2832e-10
4.07565e-10
5.6375e-10
-1.12526e-09
1.53283e-09
-3.53921e-09
2.41395e-09
-6.67986e-09
3.14065e-09
-1.03808e-08
3.70098e-09
-1.44872e-08
4.10631e-09
-1.88622e-08
4.37506e-09
-2.33875e-08
4.52529e-09
-2.7959e-08
4.57153e-09
-3.24827e-08
4.52363e-09
-3.68697e-08
4.387e-09
-4.1033e-08
4.16333e-09
-4.48849e-08
3.85193e-09
-4.8336e-08
3.45113e-09
-5.12958e-08
2.95979e-09
-5.36746e-08
2.37873e-09
-5.53866e-08
1.71201e-09
-5.63546e-08
9.68006e-10
-5.65148e-08
1.60175e-10
-5.58219e-08
-6.9283e-10
-5.42553e-08
-1.5666e-09
-5.18232e-08
-2.43209e-09
-4.85668e-08
-3.25641e-09
-4.45625e-08
-4.00438e-09
-3.99219e-08
-4.64052e-09
-3.47906e-08
-5.1313e-09
-2.9343e-08
-5.44761e-09
-2.37759e-08
-5.56714e-09
-1.82995e-08
-5.47641e-09
-1.31271e-08
-5.1724e-09
-8.46356e-09
-4.66353e-09
-4.4935e-09
-3.97006e-09
-1.36907e-09
-3.12443e-09
8.03567e-10
-2.17264e-09
1.98027e-09
-1.1767e-09
2.2005e-09
-2.20234e-10
1.63165e-09
5.6885e-10
6.57279e-10
9.7437e-10
6.57279e-10
3.46604e-10
-9.89635e-10
-5.52339e-10
5.70622e-10
-3.43922e-09
3.45063e-09
-8.48807e-09
6.58168e-09
-1.55572e-08
9.48307e-09
-2.43571e-08
1.19406e-08
-3.45401e-08
1.38839e-08
-4.57524e-08
1.53187e-08
-5.76594e-08
1.6282e-08
-6.99529e-08
1.68187e-08
-8.23498e-08
1.69685e-08
-9.45868e-08
1.67606e-08
-1.06413e-07
1.62128e-08
-1.17583e-07
1.53334e-08
-1.27855e-07
1.4124e-08
-1.36988e-07
1.25846e-08
-1.44746e-07
1.07177e-08
-1.509e-07
8.53297e-09
-1.5524e-07
6.05146e-09
-1.5758e-07
3.30853e-09
-1.57777e-07
3.56566e-10
-1.55734e-07
-2.73567e-09
-1.5142e-07
-5.88068e-09
-1.44875e-07
-8.97679e-09
-1.36221e-07
-1.19108e-08
-1.25662e-07
-1.45631e-08
-1.13488e-07
-1.68143e-08
-1.00067e-07
-1.85528e-08
-8.5832e-08
-1.96823e-08
-7.12693e-08
-2.01299e-08
-5.68933e-08
-1.98524e-08
-4.32231e-08
-1.88426e-08
-3.07542e-08
-1.71324e-08
-1.99289e-08
-1.47953e-08
-1.11053e-08
-1.19481e-08
-4.52467e-09
-8.75321e-09
-2.75179e-10
-5.42619e-09
1.75962e-09
-2.25503e-09
1.94749e-09
3.80978e-10
9.78937e-10
1.94292e-09
1.63622e-09
-5.6345e-10
-4.26185e-10
-3.53197e-09
3.53914e-09
-9.4658e-09
9.38447e-09
-1.84348e-08
1.55506e-08
-3.02188e-08
2.12672e-08
-4.44289e-08
2.61506e-08
-6.05962e-08
3.00512e-08
-7.82308e-08
3.29533e-08
-9.68537e-08
3.49049e-08
-1.1601e-07
3.59752e-08
-1.35272e-07
3.62302e-08
-1.54233e-07
3.57213e-08
-1.72502e-07
3.44822e-08
-1.897e-07
3.2531e-08
-2.05452e-07
2.98763e-08
-2.19392e-07
2.65248e-08
-2.31165e-07
2.24904e-08
-2.40434e-07
1.78021e-08
-2.46894e-07
1.25116e-08
-2.50285e-07
6.69929e-09
-2.50407e-07
4.78625e-10
-2.47137e-07
-6.00551e-09
-2.40445e-07
-1.25723e-08
-2.30407e-07
-1.90149e-08
-2.17213e-07
-2.5105e-08
-2.01172e-07
-3.06038e-08
-1.82713e-07
-3.52739e-08
-1.62371e-07
-3.88944e-08
-1.40778e-07
-4.12754e-08
-1.18634e-07
-4.22735e-08
-9.66818e-08
-4.1805e-08
-7.56674e-08
-3.98571e-08
-5.63039e-08
-3.64959e-08
-3.92273e-08
-3.18719e-08
-2.49527e-08
-2.62227e-08
-1.38289e-08
-1.98769e-08
-5.99185e-09
-1.32633e-08
-1.31798e-09
-6.9289e-09
6.32503e-10
-1.56951e-09
6.55492e-10
1.91993e-09
2.29171e-09
-1.63525e-09
1.20907e-09
-7.05344e-09
8.95733e-09
-1.6412e-08
1.87431e-08
-2.9565e-08
2.87036e-08
-4.61473e-08
3.78494e-08
-6.56548e-08
4.56582e-08
-8.75131e-08
5.19094e-08
-1.11125e-07
5.65652e-08
-1.35901e-07
5.9681e-08
-1.61273e-07
6.1347e-08
-1.86697e-07
6.1654e-08
-2.1165e-07
6.06752e-08
-2.35629e-07
5.84607e-08
-2.58139e-07
5.50411e-08
-2.78698e-07
5.04354e-08
-2.96836e-07
4.46629e-08
-3.12102e-07
3.77562e-08
-3.24074e-07
2.97736e-08
-3.32372e-07
2.08103e-08
-3.3668e-07
1.1007e-08
-3.36758e-07
5.56167e-10
-3.32463e-07
-1.03006e-08
-3.23769e-07
-2.12663e-08
-3.10779e-07
-3.20045e-08
-2.93737e-07
-4.21467e-08
-2.73033e-07
-5.13083e-08
-2.49198e-07
-5.9109e-08
-2.22898e-07
-6.51946e-08
-1.94912e-07
-6.92609e-08
-1.66108e-07
-7.10773e-08
-1.37405e-07
-7.05082e-08
-1.09731e-07
-6.75315e-08
-8.39741e-08
-6.22525e-08
-6.09341e-08
-5.4912e-08
-4.12654e-08
-4.58914e-08
-2.54263e-08
-3.5716e-08
-1.36279e-08
-2.50617e-08
-5.7871e-09
-1.47697e-08
-1.48818e-09
-5.86843e-09
4.70334e-11
3.84722e-10
2.33874e-09
-2.73207e-09
3.94114e-09
-1.07196e-08
1.69449e-08
-2.36614e-08
3.16849e-08
-4.11172e-08
4.61594e-08
-6.25248e-08
5.9257e-08
-8.72406e-08
7.0374e-08
-1.1458e-07
7.92491e-08
-1.43851e-07
8.58359e-08
-1.74372e-07
9.0202e-08
-2.05484e-07
9.24596e-08
-2.36553e-07
9.2723e-08
-2.66964e-07
9.10863e-08
-2.9612e-07
8.76165e-08
-3.23436e-07
8.23574e-08
-3.48342e-07
7.53413e-08
-3.70284e-07
6.66044e-08
-3.88732e-07
5.62042e-08
-4.03194e-07
4.42364e-08
-4.13234e-07
3.08494e-08
-4.18482e-07
1.62559e-08
-4.18667e-07
7.40677e-10
-4.13625e-07
-1.53423e-08
-4.03327e-07
-3.15643e-08
-3.87891e-07
-4.74411e-08
-3.67593e-07
-6.24442e-08
-3.42877e-07
-7.60238e-08
-3.14351e-07
-8.76355e-08
-2.82774e-07
-9.67712e-08
-2.49043e-07
-1.02992e-07
-2.14157e-07
-1.05963e-07
-1.79182e-07
-1.05483e-07
-1.45202e-07
-1.01511e-07
-1.13267e-07
-9.41883e-08
-8.43276e-08
-8.3851e-08
-5.91831e-08
-7.10359e-08
-3.84169e-08
-5.64822e-08
-2.23461e-08
-4.11325e-08
-1.09771e-08
-2.61387e-08
-3.97623e-09
-1.28693e-08
-6.60753e-10
-2.93075e-09
1.67799e-09
-3.79381e-09
7.73495e-09
-1.43404e-08
2.74915e-08
-3.08771e-08
4.82216e-08
-5.26361e-08
6.79184e-08
-7.88263e-08
8.54471e-08
-1.08643e-07
1.0019e-07
-1.41283e-07
1.11889e-07
-1.75961e-07
1.20514e-07
-2.11915e-07
1.26157e-07
-2.48414e-07
1.28958e-07
-2.84748e-07
1.29057e-07
-3.20231e-07
1.2657e-07
-3.54194e-07
1.21579e-07
-3.85981e-07
1.14144e-07
-4.14949e-07
1.0431e-07
-4.40478e-07
9.21335e-08
-4.61975e-07
7.77008e-08
-4.78889e-07
6.11499e-08
-4.90728e-07
4.26887e-08
-4.97081e-07
2.26089e-08
-4.97636e-07
1.2958e-09
-4.92204e-07
-2.07743e-08
-4.80738e-07
-4.30303e-08
-4.63352e-07
-6.48274e-08
-4.40333e-07
-8.54625e-08
-4.12154e-07
-1.04203e-07
-3.79467e-07
-1.20322e-07
-3.43102e-07
-1.33136e-07
-3.04044e-07
-1.42051e-07
-2.63404e-07
-1.46603e-07
-2.2238e-07
-1.46507e-07
-1.82204e-07
-1.41687e-07
-1.44083e-07
-1.32309e-07
-1.09132e-07
-1.18801e-07
-7.83107e-08
-1.01857e-07
-5.23538e-08
-8.2439e-08
-3.1719e-08
-6.17674e-08
-1.65421e-08
-4.13156e-08
-6.61447e-09
-2.27969e-08
-1.38609e-09
-8.15912e-09
2.91895e-10
-4.80024e-09
1.25352e-08
-1.78256e-08
4.05169e-08
-3.78753e-08
6.82712e-08
-6.3849e-08
9.38921e-08
-9.47123e-08
1.1631e-07
-1.29486e-07
1.34965e-07
-1.67244e-07
1.49647e-07
-2.07106e-07
1.60376e-07
-2.48239e-07
1.67289e-07
-2.89845e-07
1.70564e-07
-3.31161e-07
1.70372e-07
-3.71443e-07
1.66852e-07
-4.09966e-07
1.60103e-07
-4.4602e-07
1.50198e-07
-4.78908e-07
1.37198e-07
-5.07953e-07
1.21179e-07
-5.32511e-07
1.02258e-07
-5.51977e-07
8.06161e-08
-5.6581e-07
5.65224e-08
-5.73552e-07
3.03503e-08
-5.74844e-07
2.5881e-09
-5.69458e-07
-2.61607e-08
-5.5731e-07
-5.51774e-08
-5.3849e-07
-8.36477e-08
-5.1327e-07
-1.10683e-07
-4.82121e-07
-1.35352e-07
-4.45717e-07
-1.56726e-07
-4.04931e-07
-1.73923e-07
-3.60815e-07
-1.86166e-07
-3.14581e-07
-1.92838e-07
-2.6755e-07
-1.93538e-07
-2.21105e-07
-1.88132e-07
-1.76623e-07
-1.76791e-07
-1.35404e-07
-1.60021e-07
-9.85942e-08
-1.38667e-07
-6.71158e-08
-1.13917e-07
-4.1603e-08
-8.72801e-08
-2.23573e-08
-6.05613e-08
-9.32502e-09
-3.58292e-08
-2.10609e-09
-1.53781e-08
-1.81419e-09
-5.74583e-09
1.8281e-08
-2.11325e-08
5.59036e-08
-4.45537e-08
9.16924e-08
-7.45874e-08
1.23926e-07
-1.09956e-07
1.51679e-07
-1.49504e-07
1.74512e-07
-1.92176e-07
1.92319e-07
-2.37003e-07
2.05203e-07
-2.83082e-07
2.13368e-07
-3.29564e-07
2.17046e-07
-3.75638e-07
2.16446e-07
-4.20521e-07
2.11734e-07
-4.63446e-07
2.03028e-07
-5.03661e-07
1.90413e-07
-5.4043e-07
1.73966e-07
-5.73031e-07
1.53781e-07
-6.00774e-07
1.30001e-07
-6.23008e-07
1.02849e-07
-6.39139e-07
7.2654e-08
-6.48656e-07
3.98668e-08
-6.51144e-07
5.07675e-09
-6.46318e-07
-3.09869e-08
-6.34039e-07
-6.74565e-08
-6.14342e-07
-1.03344e-07
-5.87459e-07
-1.37567e-07
-5.5383e-07
-1.68981e-07
-5.14122e-07
-1.96434e-07
-4.69224e-07
-2.18821e-07
-4.20242e-07
-2.35148e-07
-3.68472e-07
-2.44608e-07
-3.15359e-07
-2.4665e-07
-2.62447e-07
-2.41044e-07
-2.11302e-07
-2.27936e-07
-1.63438e-07
-2.07885e-07
-1.20225e-07
-1.8188e-07
-8.28119e-08
-1.5133e-07
-5.20508e-08
-1.18041e-07
-2.84438e-08
-8.41683e-08
-1.21167e-08
-5.21563e-08
-2.82577e-09
-2.4669e-08
-4.63997e-09
-6.62837e-09
2.49094e-08
-2.42362e-08
7.35114e-08
-5.08462e-08
1.18303e-07
-8.47347e-08
1.57814e-07
-1.24391e-07
1.91335e-07
-1.68485e-07
2.18607e-07
-2.1584e-07
2.39674e-07
-2.65398e-07
2.54761e-07
-3.16196e-07
2.64166e-07
-3.67338e-07
2.68189e-07
-4.1798e-07
2.67089e-07
-4.67309e-07
2.61063e-07
-5.14532e-07
2.5025e-07
-5.58868e-07
2.3475e-07
-5.99549e-07
2.14648e-07
-6.35823e-07
1.90054e-07
-6.66957e-07
1.61135e-07
-6.92255e-07
1.28147e-07
-7.11072e-07
9.14711e-08
-7.22833e-07
5.16282e-08
-7.27057e-07
9.30105e-09
-7.23382e-07
-3.46624e-08
-7.11589e-07
-7.92494e-08
-6.91634e-07
-1.23299e-07
-6.63675e-07
-1.65526e-07
-6.28092e-07
-2.04564e-07
-5.85512e-07
-2.39014e-07
-5.36817e-07
-2.67516e-07
-4.83141e-07
-2.88824e-07
-4.25854e-07
-3.01895e-07
-3.66527e-07
-3.05978e-07
-3.06873e-07
-3.00699e-07
-2.48673e-07
-2.86136e-07
-1.93688e-07
-2.6287e-07
-1.43558e-07
-2.3201e-07
-9.97046e-08
-1.95184e-07
-6.32426e-08
-1.54503e-07
-3.49137e-08
-1.12497e-07
-1.50484e-08
-7.20216e-08
-3.56519e-09
-3.61522e-08
-8.20516e-09
-7.4449e-09
3.23543e-08
-2.71161e-08
9.31826e-08
-5.66999e-08
1.47886e-07
-9.41954e-08
1.9531e-07
-1.37875e-07
2.35015e-07
-1.86247e-07
2.66979e-07
-2.38017e-07
2.91444e-07
-2.92047e-07
3.08791e-07
-3.47319e-07
3.19437e-07
-4.02902e-07
3.23773e-07
-4.57928e-07
3.22115e-07
-5.11566e-07
3.147e-07
-5.63005e-07
3.0169e-07
-6.11451e-07
2.83195e-07
-6.56115e-07
2.59312e-07
-6.96217e-07
2.30157e-07
-7.30994e-07
1.95912e-07
-7.59706e-07
1.56859e-07
-7.81651e-07
1.13416e-07
-7.96187e-07
6.61639e-08
-8.0275e-07
1.58641e-08
-8.00883e-07
-3.65289e-08
-7.90266e-07
-8.98666e-08
-7.70746e-07
-1.42819e-07
-7.42373e-07
-1.93899e-07
-7.05434e-07
-2.41503e-07
-6.60481e-07
-2.83967e-07
-6.08356e-07
-3.19641e-07
-5.50198e-07
-3.46982e-07
-4.87435e-07
-3.64658e-07
-4.21756e-07
-3.71656e-07
-3.55056e-07
-3.67399e-07
-2.89356e-07
-3.51836e-07
-2.26702e-07
-3.25524e-07
-1.69051e-07
-2.89661e-07
-1.18152e-07
-2.46082e-07
-7.54379e-08
-1.97218e-07
-4.19339e-08
-1.46001e-07
-1.82076e-08
-9.57479e-08
-4.35225e-09
-5.00075e-08
-1.25574e-08
-8.19067e-09
4.0545e-08
-2.97501e-08
1.14742e-07
-6.20631e-08
1.80199e-07
-1.0288e-07
2.36126e-07
-1.50276e-07
2.82411e-07
-2.02612e-07
3.19316e-07
-2.58488e-07
3.47321e-07
-3.16695e-07
3.66997e-07
-3.76169e-07
3.78911e-07
-4.35952e-07
3.83556e-07
-4.9516e-07
3.81323e-07
-5.52955e-07
3.72495e-07
-6.08525e-07
3.57259e-07
-6.61066e-07
3.35737e-07
-7.09783e-07
3.08029e-07
-7.53879e-07
2.74253e-07
-7.92562e-07
2.34595e-07
-8.25052e-07
1.89348e-07
-8.50591e-07
1.38955e-07
-8.68461e-07
8.40346e-08
-8.78008e-07
2.54105e-08
-8.78662e-07
-3.58744e-08
-8.69977e-07
-9.85517e-08
-8.51663e-07
-1.61133e-07
-8.23631e-07
-2.21931e-07
-7.86035e-07
-2.79099e-07
-7.39315e-07
-3.30687e-07
-6.84234e-07
-3.74722e-07
-6.21901e-07
-4.09315e-07
-5.5378e-07
-4.3278e-07
-4.81665e-07
-4.43771e-07
-4.07637e-07
-4.41426e-07
-3.33979e-07
-4.25495e-07
-2.6306e-07
-3.96442e-07
-1.97211e-07
-3.5551e-07
-1.38567e-07
-3.04725e-07
-8.89422e-08
-2.46843e-07
-4.97032e-08
-1.8524e-07
-2.16975e-08
-1.23754e-07
-5.21866e-09
-6.64864e-08
-1.77761e-08
-8.85905e-09
4.9404e-08
-3.2113e-08
1.37996e-07
-6.68814e-08
2.14968e-07
-1.10696e-07
2.7994e-07
-1.61459e-07
3.33174e-07
-2.17402e-07
3.75258e-07
-2.7703e-07
4.0695e-07
-3.39075e-07
4.29042e-07
-4.02434e-07
4.4227e-07
-4.66133e-07
4.47255e-07
-5.29284e-07
4.44474e-07
-5.9105e-07
4.34261e-07
-6.50626e-07
4.16835e-07
-7.07215e-07
3.92327e-07
-7.60022e-07
3.60836e-07
-8.08243e-07
3.22474e-07
-8.51066e-07
2.77418e-07
-8.87676e-07
2.25958e-07
-9.1726e-07
1.68539e-07
-9.39024e-07
1.05799e-07
-9.52212e-07
3.85979e-08
-9.5613e-07
-3.19559e-08
-9.50186e-07
-1.04495e-07
-9.33928e-07
-1.77392e-07
-9.07092e-07
-2.48767e-07
-8.69661e-07
-3.1653e-07
-8.21919e-07
-3.78429e-07
-7.64505e-07
-4.32136e-07
-6.98456e-07
-4.75364e-07
-6.25232e-07
-5.06004e-07
-5.46711e-07
-5.22292e-07
-4.65153e-07
-5.22984e-07
-3.83115e-07
-5.07533e-07
-3.03331e-07
-4.76226e-07
-2.28554e-07
-4.30287e-07
-1.61383e-07
-3.71897e-07
-1.04083e-07
-3.04143e-07
-5.84364e-08
-2.30887e-07
-2.56295e-08
-1.5656e-07
-6.19793e-09
-8.5918e-08
-2.3974e-08
-9.44203e-09
5.8846e-08
-3.41768e-08
1.62731e-07
-7.10975e-08
2.51888e-07
-1.1755e-07
3.26393e-07
-1.71288e-07
3.86912e-07
-2.30432e-07
4.34402e-07
-2.93409e-07
4.69927e-07
-3.58899e-07
4.94531e-07
-4.25774e-07
5.09145e-07
-4.93051e-07
5.14532e-07
-5.59844e-07
5.11267e-07
-6.25333e-07
4.9975e-07
-6.88727e-07
4.80229e-07
-7.49248e-07
4.52848e-07
-8.06112e-07
4.177e-07
-8.58519e-07
3.74881e-07
-9.05648e-07
3.24547e-07
-9.46656e-07
2.66966e-07
-9.80681e-07
2.02564e-07
-1.00685e-06
1.31972e-07
-1.02432e-06
5.60595e-08
-1.03224e-06
-2.40296e-08
-1.02988e-06
-1.06859e-07
-1.01659e-06
-1.90683e-07
-9.91902e-07
-2.73452e-07
-9.55593e-07
-3.52839e-07
-9.07741e-07
-4.26281e-07
-8.48806e-07
-4.9107e-07
-7.797e-07
-5.44471e-07
-7.01827e-07
-5.83877e-07
-6.1711e-07
-6.07008e-07
-5.27965e-07
-6.1213e-07
-4.37224e-07
-5.98274e-07
-3.48013e-07
-5.65437e-07
-2.63568e-07
-5.14732e-07
-1.87024e-07
-4.48441e-07
-1.21191e-07
-3.69975e-07
-6.83544e-08
-2.83724e-07
-3.01185e-08
-1.94796e-07
-7.32437e-09
-1.08712e-07
-3.12984e-08
-9.93089e-09
6.87769e-08
-3.59122e-08
1.88712e-07
-7.46531e-08
2.90629e-07
-1.23347e-07
3.75086e-07
-1.79626e-07
4.43192e-07
-2.41518e-07
4.96294e-07
-3.07387e-07
5.35796e-07
-3.75872e-07
5.63016e-07
-4.45828e-07
5.79101e-07
-5.16271e-07
5.84975e-07
-5.86331e-07
5.81327e-07
-6.55208e-07
5.68627e-07
-7.22141e-07
5.47161e-07
-7.86379e-07
5.17086e-07
-8.47163e-07
4.78484e-07
-9.0371e-07
4.31428e-07
-9.552e-07
3.76038e-07
-1.00077e-06
3.12541e-07
-1.03953e-06
2.41323e-07
-1.07054e-06
1.62981e-07
-1.09284e-06
7.83606e-08
-1.10548e-06
-1.13927e-08
-1.10753e-06
-1.04808e-07
-1.09816e-06
-2.00057e-07
-1.07666e-06
-2.94949e-07
-1.04256e-06
-3.86936e-07
-9.95692e-07
-4.73153e-07
-9.3627e-07
-5.50492e-07
-8.65013e-07
-6.15728e-07
-7.83205e-07
-6.65684e-07
-6.92751e-07
-6.97462e-07
-5.96178e-07
-7.08703e-07
-4.9658e-07
-6.97872e-07
-3.97487e-07
-6.6453e-07
-3.02671e-07
-6.09549e-07
-2.15884e-07
-5.35228e-07
-1.40586e-07
-4.45273e-07
-7.96755e-08
-3.44635e-07
-3.52799e-08
-2.39192e-07
-8.63265e-09
-1.35359e-07
-3.9931e-08
-1.03171e-08
7.9094e-08
-3.72914e-08
2.15686e-07
-7.74928e-08
3.30831e-07
-1.27997e-07
4.25591e-07
-1.86343e-07
5.01537e-07
-2.50483e-07
5.60434e-07
-3.1873e-07
6.04044e-07
-3.89696e-07
6.33982e-07
-4.62226e-07
6.51631e-07
-5.35343e-07
6.58093e-07
-6.082e-07
6.54184e-07
-6.80028e-07
6.40455e-07
-7.50103e-07
6.17237e-07
-8.17717e-07
5.84699e-07
-8.82146e-07
5.42913e-07
-9.42639e-07
4.9192e-07
-9.98393e-07
4.31792e-07
-1.04855e-06
3.62699e-07
-1.09219e-06
2.84963e-07
-1.12833e-06
1.99115e-07
-1.15591e-06
1.05948e-07
-1.17387e-06
6.5682e-09
-1.18112e-06
-9.75598e-08
-1.17661e-06
-2.04569e-07
-1.15939e-06
-3.12166e-07
-1.12871e-06
-4.17619e-07
-1.08409e-06
-5.17776e-07
-1.02545e-06
-6.09133e-07
-9.53231e-07
-6.87944e-07
-8.68516e-07
-7.50399e-07
-7.73104e-07
-7.92874e-07
-6.69564e-07
-8.12243e-07
-5.61205e-07
-8.06231e-07
-4.5196e-07
-7.73775e-07
-3.46171e-07
-7.15337e-07
-2.48296e-07
-6.33102e-07
-1.6256e-07
-5.31009e-07
-9.26092e-08
-4.14586e-07
-4.12275e-08
-2.90573e-07
-1.01576e-08
-1.66429e-07
-5.00886e-08
-1.05932e-08
8.96872e-08
-3.82904e-08
2.43384e-07
-7.95696e-08
3.7211e-07
-1.31425e-07
4.77446e-07
-1.91324e-07
5.61436e-07
-2.57166e-07
6.26276e-07
-3.27224e-07
6.74102e-07
-4.0009e-07
7.06848e-07
-4.74608e-07
7.26149e-07
-5.49816e-07
7.33301e-07
-6.24894e-07
7.29262e-07
-6.99114e-07
7.14675e-07
-7.71802e-07
6.89924e-07
-8.42298e-07
6.55195e-07
-9.09932e-07
6.10548e-07
-9.73999e-07
5.55986e-07
-1.03373e-06
4.91526e-07
-1.0883e-06
4.17263e-07
-1.13677e-06
3.33433e-07
-1.17813e-06
2.40477e-07
-1.21128e-06
1.39097e-07
-1.23503e-06
3.03205e-08
-1.24815e-06
-8.44402e-08
-1.24939e-06
-2.03331e-07
-1.23755e-06
-3.24008e-07
-1.21156e-06
-4.43604e-07
-1.17061e-06
-5.58726e-07
-1.11425e-06
-6.6549e-07
-1.04257e-06
-7.59624e-07
-9.56336e-07
-8.36635e-07
-8.57133e-07
-8.92077e-07
-7.4747e-07
-9.21906e-07
-6.30793e-07
-9.22909e-07
-5.11398e-07
-8.9317e-07
-3.94223e-07
-8.32513e-07
-2.84504e-07
-7.42821e-07
-1.87361e-07
-6.28152e-07
-1.07348e-07
-4.94599e-07
-4.80714e-08
-3.49851e-07
-1.19341e-08
-2.02567e-07
-6.20228e-08
-1.07539e-08
1.00441e-07
-3.88927e-08
2.71522e-07
-8.08504e-08
4.14068e-07
-1.33574e-07
5.30169e-07
-1.94484e-07
6.22346e-07
-2.6144e-07
6.93232e-07
-3.3269e-07
7.45352e-07
-4.06811e-07
7.80969e-07
-4.82651e-07
8.01989e-07
-5.59269e-07
8.09919e-07
-6.35879e-07
8.05872e-07
-7.11802e-07
7.90597e-07
-7.86419e-07
7.64541e-07
-8.59136e-07
7.27912e-07
-9.29348e-07
6.8076e-07
-9.96413e-07
6.23051e-07
-1.05962e-06
5.54735e-07
-1.11818e-06
4.75823e-07
-1.1712e-06
3.86448e-07
-1.21765e-06
2.86932e-07
-1.25641e-06
1.77855e-07
-1.28622e-06
6.01267e-08
-1.30571e-06
-6.4945e-08
-1.31347e-06
-1.95576e-07
-1.30804e-06
-3.29437e-07
-1.28805e-06
-4.63593e-07
-1.25231e-06
-5.9447e-07
-1.19994e-06
-7.17856e-07
-1.13059e-06
-8.28972e-07
-1.0446e-06
-9.22624e-07
-9.43215e-07
-9.93465e-07
-8.28735e-07
-1.03639e-06
-7.04625e-07
-1.04702e-06
-5.75468e-07
-1.02233e-06
-4.46776e-07
-9.61205e-07
-3.24631e-07
-8.64966e-07
-2.15178e-07
-7.37606e-07
-1.24062e-07
-5.85714e-07
-5.59156e-08
-4.17997e-07
-1.3997e-08
-2.44485e-07
-7.60197e-08
-1.07974e-08
1.11238e-07
-3.90929e-08
2.99818e-07
-8.13235e-08
4.56298e-07
-1.3442e-07
5.83266e-07
-1.95778e-07
6.83704e-07
-2.63231e-07
7.60685e-07
-3.35006e-07
8.17127e-07
-4.09674e-07
8.55637e-07
-4.86091e-07
8.78406e-07
-5.63341e-07
8.87168e-07
-6.40678e-07
8.83209e-07
-7.17476e-07
8.67396e-07
-7.93184e-07
8.40249e-07
-8.67282e-07
8.0201e-07
-9.39245e-07
7.52723e-07
-1.00851e-06
6.92317e-07
-1.07445e-06
6.20676e-07
-1.13634e-06
5.37716e-07
-1.19335e-06
4.43452e-07
-1.24449e-06
3.3807e-07
-1.28863e-06
2.21998e-07
-1.32449e-06
9.59874e-08
-1.35063e-06
-3.88074e-08
-1.36547e-06
-1.80734e-07
-1.36735e-06
-3.27552e-07
-1.3546e-06
-4.76342e-07
-1.32564e-06
-6.23435e-07
-1.27912e-06
-7.64372e-07
-1.21417e-06
-8.93926e-07
-1.13057e-06
-1.00622e-06
-1.02908e-06
-1.09496e-06
-9.11617e-07
-1.15385e-06
-7.81498e-07
-1.17714e-06
-6.43457e-07
-1.16037e-06
-5.03519e-07
-1.10114e-06
-3.68637e-07
-9.99848e-07
-2.46112e-07
-8.60131e-07
-1.42884e-07
-6.88942e-07
-6.48545e-08
-4.96026e-07
-1.63804e-08
-2.92959e-07
-9.24001e-08
-1.07262e-08
1.21965e-07
-3.89005e-08
3.27992e-07
-8.10055e-08
4.98403e-07
-1.33983e-07
6.36243e-07
-1.95219e-07
7.4494e-07
-2.62529e-07
8.27995e-07
-3.34127e-07
8.88726e-07
-4.08581e-07
9.30091e-07
-4.84757e-07
9.54582e-07
-5.61768e-07
9.64179e-07
-6.38912e-07
9.60353e-07
-7.15624e-07
9.44108e-07
-7.91428e-07
9.16052e-07
-8.65887e-07
8.76469e-07
-9.38571e-07
8.25408e-07
-1.00902e-06
7.62764e-07
-1.0767e-06
6.88358e-07
-1.14099e-06
6.02007e-07
-1.20114e-06
5.03603e-07
-1.25625e-06
3.93179e-07
-1.30524e-06
2.7099e-07
-1.34685e-06
1.37592e-07
-1.3796e-06
-6.0594e-09
-1.40183e-06
-1.58506e-07
-1.4117e-06
-3.17676e-07
-1.40728e-06
-4.80763e-07
-1.38661e-06
-6.4411e-07
-1.34786e-06
-8.03123e-07
-1.28955e-06
-9.52232e-07
-1.21083e-06
-1.08494e-06
-1.11177e-06
-1.19402e-06
-9.93735e-07
-1.27189e-06
-8.59649e-07
-1.31122e-06
-7.14207e-07
-1.30581e-06
-5.63817e-07
-1.25153e-06
-4.1628e-07
-1.14738e-06
-2.80156e-07
-9.96255e-07
-1.639e-07
-8.05198e-07
-7.49695e-08
-5.84957e-07
-1.91177e-08
-3.48811e-07
-1.11518e-07
-1.05487e-08
1.32513e-07
-3.83441e-08
3.55788e-07
-7.99493e-08
5.40008e-07
-1.32336e-07
6.8863e-07
-1.92889e-07
8.05494e-07
-2.59413e-07
8.94519e-07
-3.30109e-07
9.59422e-07
-4.03545e-07
1.00353e-06
-4.78599e-07
1.02964e-06
-5.54416e-07
1.04e-06
-6.30342e-07
1.03628e-06
-7.05881e-07
1.01965e-06
-7.80636e-07
9.90807e-07
-8.54268e-07
9.50101e-07
-9.26453e-07
8.97593e-07
-9.96845e-07
8.33157e-07
-1.06504e-06
7.56551e-07
-1.13053e-06
6.67502e-07
-1.1927e-06
5.65773e-07
-1.25076e-06
4.51239e-07
-1.30374e-06
3.23963e-07
-1.35043e-06
1.84286e-07
-1.38941e-06
3.29197e-08
-1.41898e-06
-1.28931e-07
-1.43722e-06
-2.99442e-07
-1.44196e-06
-4.76022e-07
-1.43091e-06
-6.55155e-07
-1.40178e-06
-8.32254e-07
-1.35247e-06
-1.00155e-06
-1.28135e-06
-1.15605e-06
-1.18769e-06
-1.28767e-06
-1.07205e-06
-1.38753e-06
-9.36708e-07
-1.44656e-06
-7.86049e-07
-1.45647e-06
-6.2665e-07
-1.41093e-06
-4.67063e-07
-1.30697e-06
-3.17162e-07
-1.14616e-06
-1.87135e-07
-9.35225e-07
-8.63229e-08
-6.85769e-07
-2.22402e-08
-4.12894e-07
-1.33758e-07
-1.02806e-08
1.42794e-07
-3.7476e-08
3.82983e-07
-7.82529e-08
5.80785e-07
-1.29619e-07
7.39996e-07
-1.88962e-07
8.64836e-07
-2.5407e-07
9.59627e-07
-3.23133e-07
1.02849e-06
-3.94717e-07
1.07511e-06
-4.67717e-07
1.10264e-06
-5.41313e-07
1.11359e-06
-6.14906e-07
1.10987e-06
-6.88071e-07
1.09281e-06
-7.60503e-07
1.06324e-06
-8.31969e-07
1.02157e-06
-9.02265e-07
9.67889e-07
-9.71174e-07
9.02066e-07
-1.03843e-06
8.23811e-07
-1.10369e-06
7.32762e-07
-1.16648e-06
6.28563e-07
-1.22617e-06
5.10928e-07
-1.28194e-06
3.79726e-07
-1.33271e-06
2.35059e-07
-1.37716e-06
7.73704e-08
-1.41365e-06
-9.24401e-08
-1.44022e-06
-2.7287e-07
-1.4546e-06
-4.61647e-07
-1.45422e-06
-6.55531e-07
-1.43636e-06
-8.5011e-07
-1.39831e-06
-1.0396e-06
-1.33764e-06
-1.21672e-06
-1.25265e-06
-1.37266e-06
-1.14288e-06
-1.4973e-06
-1.00968e-06
-1.57977e-06
-8.56758e-07
-1.60939e-06
-6.9056e-07
-1.57713e-06
-5.20184e-07
-1.47735e-06
-3.56805e-07
-1.30954e-06
-2.12532e-07
-1.0795e-06
-9.89519e-08
-7.9935e-07
-2.57765e-08
-4.86069e-07
-1.59535e-07
-9.94572e-09
1.5274e-07
-3.63771e-08
4.09415e-07
-7.60685e-08
6.20477e-07
-1.26056e-07
7.89983e-07
-1.83715e-07
9.22495e-07
-2.46813e-07
1.02272e-06
-3.13524e-07
1.0952e-06
-3.8241e-07
1.144e-06
-4.52388e-07
1.17262e-06
-5.22679e-07
1.18388e-06
-5.92746e-07
1.17994e-06
-6.62248e-07
1.16231e-06
-7.30976e-07
1.13197e-06
-7.98816e-07
1.08941e-06
-8.65692e-07
1.03476e-06
-9.31535e-07
9.67909e-07
-9.9624e-07
8.88516e-07
-1.05963e-06
7.96151e-07
-1.12141e-06
6.90346e-07
-1.18115e-06
5.70665e-07
-1.2382e-06
4.36782e-07
-1.29171e-06
2.88561e-07
-1.34049e-06
1.26153e-07
-1.38304e-06
-4.98845e-08
-1.41749e-06
-2.38424e-07
-1.44152e-06
-4.37615e-07
-1.45243e-06
-6.44626e-07
-1.44714e-06
-8.55399e-07
-1.42238e-06
-1.06436e-06
-1.37493e-06
-1.26417e-06
-1.30204e-06
-1.44555e-06
-1.20201e-06
-1.59733e-06
-1.07496e-06
-1.70683e-06
-9.23528e-07
-1.76082e-06
-7.53602e-07
-1.74706e-06
-5.74494e-07
-1.65646e-06
-3.98549e-07
-1.48548e-06
-2.39936e-07
-1.23811e-06
-1.12861e-07
-9.26424e-07
-2.97507e-08
-5.6918e-07
-1.89285e-07
-9.57871e-09
1.62318e-07
-3.51626e-08
4.34998e-07
-7.3613e-08
6.58927e-07
-1.21963e-07
8.38333e-07
-1.77551e-07
9.78083e-07
-2.38104e-07
1.08328e-06
-3.01771e-07
1.15886e-06
-3.67117e-07
1.20934e-06
-4.33084e-07
1.23858e-06
-4.98945e-07
1.24974e-06
-5.64238e-07
1.24523e-06
-6.28714e-07
1.22679e-06
-6.92279e-07
1.19553e-06
-7.5494e-07
1.15207e-06
-8.16769e-07
1.09659e-06
-8.7785e-07
1.02899e-06
-9.38252e-07
9.48917e-07
-9.97983e-07
8.55882e-07
-1.05696e-06
7.49319e-07
-1.11495e-06
6.28658e-07
-1.17156e-06
4.93388e-07
-1.22614e-06
3.4314e-07
-1.27775e-06
1.77772e-07
-1.32511e-06
-2.5303e-09
-1.3665e-06
-1.97035e-07
-1.3997e-06
-4.04414e-07
-1.42197e-06
-6.22354e-07
-1.43004e-06
-8.47327e-07
-1.42019e-06
-1.07421e-06
-1.38845e-06
-1.29591e-06
-1.33102e-06
-1.50299e-06
-1.24482e-06
-1.68352e-06
-1.12842e-06
-1.82322e-06
-9.82996e-07
-1.90624e-06
-8.13322e-07
-1.91673e-06
-6.28454e-07
-1.84132e-06
-4.41618e-07
-1.67232e-06
-2.69071e-07
-1.41066e-06
-1.28017e-07
-1.06748e-06
-3.41817e-08
-6.63015e-07
-2.23467e-07
-9.22667e-09
1.71545e-07
-3.399e-08
4.59762e-07
-7.11818e-08
6.96119e-07
-1.17771e-07
8.84923e-07
-1.71013e-07
1.03132e-06
-2.28567e-07
1.14083e-06
-2.88549e-07
1.21884e-06
-3.49527e-07
1.27032e-06
-4.10484e-07
1.29954e-06
-4.70762e-07
1.31002e-06
-5.29991e-07
1.30446e-06
-5.88033e-07
1.28483e-06
-6.44919e-07
1.25242e-06
-7.00798e-07
1.20795e-06
-7.55892e-07
1.15169e-06
-8.10456e-07
1.08355e-06
-8.64736e-07
1.0032e-06
-9.1894e-07
9.10086e-07
-9.73197e-07
8.03577e-07
-1.02752e-06
6.82979e-07
-1.08175e-06
5.4762e-07
-1.13552e-06
3.96911e-07
-1.18818e-06
2.30427e-07
-1.23871e-06
4.80051e-08
-1.28565e-06
-1.50099e-07
-1.32699e-06
-3.63066e-07
-1.36013e-06
-5.89223e-07
-1.38172e-06
-8.25731e-07
-1.38778e-06
-1.06815e-06
-1.37375e-06
-1.30994e-06
-1.33482e-06
-1.54193e-06
-1.2665e-06
-1.75184e-06
-1.16558e-06
-1.92414e-06
-1.0313e-06
-2.04052e-06
-8.66766e-07
-2.08127e-06
-6.80112e-07
-2.02798e-06
-4.84959e-07
-1.86747e-06
-2.99529e-07
-1.59609e-06
-1.44339e-07
-1.22267e-06
-3.9082e-08
-7.68272e-07
-2.62549e-07
-8.95293e-09
1.80498e-07
-3.30693e-08
4.83878e-07
-6.91654e-08
7.32215e-07
-1.14046e-07
9.29804e-07
-1.6481e-07
1.08209e-06
-2.19012e-07
1.19503e-06
-2.74724e-07
1.27456e-06
-3.3053e-07
1.32613e-06
-3.85476e-07
1.35449e-06
-4.38995e-07
1.36354e-06
-4.9084e-07
1.35631e-06
-5.41007e-07
1.335e-06
-5.89672e-07
1.30108e-06
-6.3714e-07
1.25541e-06
-6.83797e-07
1.19834e-06
-7.30071e-07
1.12983e-06
-7.76397e-07
1.04952e-06
-8.23185e-07
9.56874e-07
-8.70783e-07
8.51175e-07
-9.19444e-07
7.3164e-07
-9.69279e-07
5.97456e-07
-1.02021e-06
4.4784e-07
-1.07189e-06
2.82108e-07
-1.12365e-06
9.976e-08
-1.17434e-06
-9.94e-08
-1.22231e-06
-3.151e-07
-1.26518e-06
-5.46358e-07
-1.29977e-06
-7.9114e-07
-1.32201e-06
-1.0459e-06
-1.32698e-06
-1.30498e-06
-1.30902e-06
-1.55988e-06
-1.26232e-06
-1.79854e-06
-1.18174e-06
-2.00473e-06
-1.06421e-06
-2.15805e-06
-9.10516e-07
-2.23496e-06
-7.27097e-07
-2.2114e-06
-5.27232e-07
-2.06733e-06
-3.30753e-07
-1.79257e-06
-1.61702e-07
-1.39172e-06
-4.44591e-08
-8.85516e-07
-3.07008e-07
-8.84224e-09
1.8934e-07
-3.26783e-08
5.07714e-07
-6.80738e-08
7.67611e-07
-1.11514e-07
9.73244e-07
-1.59839e-07
1.13041e-06
-2.1045e-07
1.24564e-06
-2.61369e-07
1.32548e-06
-3.11217e-07
1.37597e-06
-3.59136e-07
1.40241e-06
-4.04698e-07
1.4091e-06
-4.47811e-07
1.39942e-06
-4.88638e-07
1.37583e-06
-5.27527e-07
1.33997e-06
-5.64956e-07
1.29284e-06
-6.01487e-07
1.23488e-06
-6.37728e-07
1.16607e-06
-6.74302e-07
1.0861e-06
-7.1182e-07
9.94391e-07
-7.50847e-07
8.90201e-07
-7.91873e-07
7.72666e-07
-8.35275e-07
6.40858e-07
-8.81265e-07
4.9383e-07
-9.29832e-07
3.30675e-07
-9.80657e-07
1.50585e-07
-1.03301e-06
-4.70484e-08
-1.08562e-06
-2.62489e-07
-1.13652e-06
-4.95459e-07
-1.18286e-06
-7.44799e-07
-1.22075e-06
-1.00801e-06
-1.24514e-06
-1.28059e-06
-1.24984e-06
-1.55518e-06
-1.22787e-06
-1.82051e-06
-1.17221e-06
-2.06039e-06
-1.07722e-06
-2.25304e-06
-9.4076e-07
-2.37142e-06
-7.66628e-07
-2.38553e-06
-5.66792e-07
-2.26717e-06
-3.6203e-07
-1.99733e-06
-1.79935e-07
-1.57381e-06
-5.03177e-08
-1.01513e-06
-3.57326e-07
-9.00937e-09
1.9835e-07
-3.31859e-08
5.31891e-07
-6.85691e-08
8.02994e-07
-1.11097e-07
1.01577e-06
-1.57211e-07
1.17653e-06
-2.04104e-07
1.29254e-06
-2.49751e-07
1.37112e-06
-2.9285e-07
1.41907e-06
-3.32696e-07
1.44225e-06
-3.69056e-07
1.44546e-06
-4.02047e-07
1.43241e-06
-4.32041e-07
1.40582e-06
-4.59589e-07
1.36752e-06
-4.85364e-07
1.31862e-06
-5.10114e-07
1.25963e-06
-5.34633e-07
1.19059e-06
-5.59728e-07
1.11119e-06
-5.86204e-07
1.02087e-06
-6.1483e-07
9.18828e-07
-6.46322e-07
8.04159e-07
-6.81308e-07
6.75843e-07
-7.20283e-07
5.32806e-07
-7.63562e-07
3.73954e-07
-8.11199e-07
1.98222e-07
-8.62886e-07
4.63865e-09
-9.17834e-07
-2.07541e-07
-9.74576e-07
-4.38717e-07
-1.03077e-06
-6.88607e-07
-1.08294e-06
-9.5584e-07
-1.12624e-06
-1.23729e-06
-1.1543e-06
-1.52712e-06
-1.1593e-06
-1.8155e-06
-1.13256e-06
-2.08713e-06
-1.06579e-06
-2.31981e-06
-9.53377e-07
-2.48384e-06
-7.95541e-07
-2.54336e-06
-6.01688e-07
-2.46102e-06
-3.92495e-07
-2.20652e-06
-1.98832e-07
-1.76748e-06
-5.66673e-08
-1.1573e-06
-4.13993e-07
-9.61297e-09
2.07962e-07
-3.50872e-08
5.57365e-07
-7.15131e-08
8.3942e-07
-1.13955e-07
1.05821e-06
-1.58279e-07
1.22085e-06
-2.01411e-07
1.33567e-06
-2.41307e-07
1.41102e-06
-2.76812e-07
1.45458e-06
-3.07457e-07
1.4729e-06
-3.33285e-07
1.47129e-06
-3.54689e-07
1.45382e-06
-3.72305e-07
1.42344e-06
-3.86925e-07
1.38214e-06
-3.99437e-07
1.33113e-06
-4.1079e-07
1.27098e-06
-4.21961e-07
1.20176e-06
-4.33937e-07
1.12317e-06
-4.47702e-07
1.03463e-06
-4.64214e-07
9.35339e-07
-4.8439e-07
8.24335e-07
-5.09086e-07
7.00539e-07
-5.3906e-07
5.62779e-07
-5.7493e-07
4.09824e-07
-6.17112e-07
2.40405e-07
-6.65738e-07
5.32646e-08
-7.2051e-07
-1.5277e-07
-7.80552e-07
-3.78675e-07
-8.44161e-07
-6.24998e-07
-9.08504e-07
-8.91497e-07
-9.69267e-07
-1.17653e-06
-1.02031e-06
-1.47608e-06
-1.05346e-06
-1.78235e-06
-1.05875e-06
-2.08184e-06
-1.02539e-06
-2.35317e-06
-9.44016e-07
-2.56521e-06
-8.10308e-07
-2.67707e-06
-6.29649e-07
-2.64168e-06
-4.21129e-07
-2.41504e-06
-2.18174e-07
-1.97043e-06
-6.35365e-08
-1.31194e-06
-4.77529e-07
-1.08786e-08
2.18841e-07
-3.90561e-08
5.85542e-07
-7.80306e-08
8.78394e-07
-1.21538e-07
1.10172e-06
-1.64652e-07
1.26397e-06
-2.03994e-07
1.37501e-06
-2.37572e-07
1.4446e-06
-2.6449e-07
1.48149e-06
-2.8464e-07
1.49305e-06
-2.98445e-07
1.48509e-06
-3.06666e-07
1.46204e-06
-3.10264e-07
1.42703e-06
-3.1031e-07
1.38219e-06
-3.07935e-07
1.32876e-06
-3.04294e-07
1.26734e-06
-3.00546e-07
1.19801e-06
-2.97847e-07
1.12047e-06
-2.97339e-07
1.03412e-06
-3.00146e-07
9.38147e-07
-3.07362e-07
8.31551e-07
-3.20036e-07
7.13213e-07
-3.39158e-07