/*--------------------------------*- C++ -*----------------------------------*\
| =========                 |                                                 |
| \\      /  F ield         | OpenFOAM: The Open Source CFD Toolbox           |
|  \\    /   O peration     | Version:  2.1.1                                 |
|   \\  /    A nd           | Web:      www.OpenFOAM.org                      |
|    \\/     M anipulation  |                                                 |
\*---------------------------------------------------------------------------*/
FoamFile
{
    version     2.0;
    format      ascii;
    class       volScalarField;
    location    "0.2";
    object      p;
}
// * * * * * * * * * * * * * * * * * * * * * * * * * * * * * * * * * * * * * //

dimensions      [0 2 -2 0 0 0 0];

internalField   nonuniform List<scalar> 
25921
(
-1.01062e-10
8.33598e-06
6.97724e-06
-7.78074e-06
-3.57909e-05
-7.60439e-05
-0.000127078
-0.000187254
-0.000254954
-0.000328664
-0.000406994
-0.000488686
-0.000572612
-0.000657759
-0.000743227
-0.000828214
-0.000912009
-0.000993981
-0.00107358
-0.0011503
-0.00122372
-0.00129347
-0.00135921
-0.00142065
-0.00147755
-0.00152969
-0.00157688
-0.00161898
-0.00165585
-0.00168738
-0.00171347
-0.00173405
-0.00174906
-0.00175845
-0.00176219
-0.00176025
-0.00175261
-0.00173925
-0.00172018
-0.00169539
-0.0016649
-0.0016287
-0.00158682
-0.00153927
-0.00148607
-0.00142725
-0.00136282
-0.00129282
-0.00121729
-0.00113624
-0.00104973
-0.000957786
-0.00086046
-0.000757796
-0.000649847
-0.000536669
-0.000418323
-0.000294875
-0.000166396
-3.29664e-05
0.000105331
0.000248405
0.000396155
0.000548477
0.000705253
0.000866361
0.00103167
0.00120103
0.0013743
0.00155132
0.0017319
0.00191587
0.00210304
0.00229319
0.00248612
0.0026816
0.00287939
0.00307925
0.0032809
0.00348409
0.00368852
0.00389392
0.00409999
0.0043064
0.00451284
0.004719
0.00492452
0.00512908
0.00533232
0.00553389
0.00573344
0.00593061
0.00612503
0.00631634
0.00650419
0.0066882
0.00686802
0.00704329
0.00721367
0.0073788
0.00753836
0.00769202
0.00783945
0.00798036
0.00811446
0.00824146
0.00836111
0.00847316
0.00857739
0.0086736
0.0087616
0.00884122
0.00891235
0.00897485
0.00902864
0.00907366
0.00910987
0.00913727
0.00915588
0.00916575
0.00916695
0.00915959
0.00914382
0.0091198
0.00908772
0.00904783
0.00900036
0.00894562
0.00888392
0.0088156
0.00874104
0.00866065
0.00857484
0.0084841
0.00838889
0.00828974
0.00818718
0.00808178
0.00797413
0.00786485
0.00775459
0.007644
0.0075338
0.00742469
0.00731742
0.00721278
0.00711155
0.00701457
0.00692269
0.00683678
0.00675774
0.00668647
0.0066239
0.00657089
0.00652828
0.00649676
0.00647674
0.00646811
0.00646984
0.00647947
0.00649158
-8.33546e-06
9.14388e-09
-2.75667e-06
-1.74524e-05
-4.31452e-05
-7.91976e-05
-0.000124632
-0.000178222
-0.000238684
-0.000304763
-0.000375268
-0.00044909
-0.000525212
-0.000602707
-0.000680734
-0.00075854
-0.000835444
-0.00091084
-0.000984188
-0.00105501
-0.00112287
-0.0011874
-0.00124826
-0.00130517
-0.00135787
-0.00140613
-0.00144978
-0.00148864
-0.00152256
-0.00155144
-0.00157517
-0.00159366
-0.00160685
-0.00161467
-0.00161709
-0.00161407
-0.00160558
-0.0015916
-0.00157212
-0.00154714
-0.00151666
-0.00148068
-0.00143922
-0.00139227
-0.00133987
-0.00128202
-0.00121876
-0.00115011
-0.00107609
-0.000996752
-0.000912116
-0.000822226
-0.000727125
-0.000626861
-0.000521485
-0.000411052
-0.000295623
-0.000175265
-5.00487e-05
7.99477e-05
0.00021464
0.000353938
0.000497742
0.000645947
0.00079844
0.000955097
0.00111579
0.00128037
0.0014487
0.00162062
0.00179595
0.00197452
0.00215614
0.00234061
0.00252771
0.00271724
0.00290895
0.00310261
0.00329797
0.00349476
0.00369271
0.00389154
0.00409096
0.00429068
0.00449038
0.00468975
0.00488848
0.00508622
0.00528266
0.00547745
0.00567025
0.00586071
0.0060485
0.00623326
0.00641465
0.00659231
0.00676592
0.00693513
0.0070996
0.00725902
0.00741305
0.00756139
0.00770375
0.00783982
0.00796934
0.00809205
0.00820769
0.00831604
0.0084169
0.00851006
0.00859535
0.00867263
0.00874178
0.00880267
0.00885524
0.00889943
0.00893522
0.00896259
0.00898157
0.00899222
0.00899462
0.00898887
0.00897512
0.00895352
0.00892427
0.0088876
0.00884375
0.008793
0.00873567
0.00867208
0.00860261
0.00852763
0.00844757
0.00836287
0.00827399
0.00818143
0.00808571
0.00798737
0.00788698
0.00778512
0.00768241
0.00757949
0.00747702
0.00737566
0.00727614
0.00717917
0.00708549
0.00699586
0.00691106
0.00683188
0.00675911
0.00669353
0.00663589
0.00658692
0.00654721
0.00651724
0.00649719
0.00648681
0.00648523
0.00649158
0.00650369
-6.98966e-06
2.78466e-06
1.9522e-08
-1.43298e-05
-3.85037e-05
-7.18719e-05
-0.000113635
-0.000162768
-0.00021819
-0.000278824
-0.000343628
-0.000411615
-0.000481862
-0.00055352
-0.000625808
-0.000698018
-0.000769505
-0.00083969
-0.000908052
-0.000974124
-0.00103749
-0.00109778
-0.00115466
-0.00120785
-0.00125708
-0.00130215
-0.00134284
-0.00137899
-0.00141045
-0.00143711
-0.00145884
-0.00147557
-0.00148721
-0.0014937
-0.00149499
-0.00149104
-0.00148182
-0.00146731
-0.00144748
-0.00142234
-0.00139186
-0.00135606
-0.00131495
-0.00126852
-0.00121679
-0.00115979
-0.00109753
-0.00103003
-0.000957326
-0.000879445
-0.000796422
-0.000708296
-0.000615108
-0.000516906
-0.000413738
-0.000305661
-0.000192735
-7.50252e-05
4.73973e-05
0.000174456
0.000306066
0.000442138
0.000582576
0.000727273
0.000876118
0.00102899
0.00118576
0.00134629
0.00151044
0.00167804
0.00184893
0.00202294
0.00219988
0.00237955
0.00256176
0.00274628
0.0029329
0.00312137
0.00331145
0.00350288
0.00369541
0.00388876
0.00408265
0.00427679
0.00447088
0.00466463
0.0048577
0.0050498
0.0052406
0.00542977
0.00561699
0.00580192
0.00598423
0.00616358
0.00633964
0.00651208
0.00668057
0.00684479
0.00700441
0.00715912
0.00730861
0.00745259
0.00759078
0.00772288
0.00784865
0.00796783
0.00808019
0.00818551
0.00828358
0.00837424
0.00845732
0.00853267
0.00860017
0.00865974
0.00871129
0.00875478
0.00879019
0.00881751
0.00883677
0.00884803
0.00885137
0.00884689
0.00883474
0.00881507
0.00878807
0.00875397
0.00871301
0.00866546
0.00861162
0.00855182
0.00848641
0.00841576
0.00834028
0.00826041
0.00817658
0.00808928
0.00799901
0.00790629
0.00781165
0.00771568
0.00761895
0.00752208
0.00742568
0.00733042
0.00723694
0.00714592
0.00705808
0.0069741
0.0068947
0.0068206
0.00675252
0.00669113
0.00663711
0.00659105
0.00655347
0.00652472
0.00650501
0.00649411
0.00649154
0.00649792
0.00651332
7.75985e-06
1.75004e-05
1.43714e-05
-6.27057e-09
-2.34809e-05
-5.53419e-05
-9.48339e-05
-0.000141033
-0.00019298
-0.000249723
-0.000310335
-0.000373926
-0.000439661
-0.000506757
-0.000574494
-0.000642209
-0.000709296
-0.000775205
-0.00083944
-0.000901551
-0.000961136
-0.00101784
-0.00107133
-0.00112133
-0.00116758
-0.00120987
-0.00124799
-0.00128178
-0.00131109
-0.00133578
-0.00135576
-0.00137092
-0.00138118
-0.00138648
-0.00138677
-0.00138199
-0.00137212
-0.00135712
-0.00133698
-0.00131168
-0.00128122
-0.00124558
-0.00120478
-0.00115882
-0.00110772
-0.00105148
-0.000990122
-0.000923674
-0.00085216
-0.000775607
-0.000694051
-0.000607527
-0.000516077
-0.000419746
-0.000318582
-0.000212642
-0.000101983
1.33297e-05
0.000133226
0.00025763
0.000386459
0.000519624
0.00065703
0.000798573
0.000944142
0.00109362
0.00124688
0.00140378
0.00156418
0.00172794
0.00189488
0.00206483
0.00223761
0.00241304
0.0025909
0.002771
0.00295311
0.003137
0.00332243
0.00350916
0.00369693
0.00388547
0.00407451
0.00426377
0.00445295
0.00464178
0.00482993
0.00501711
0.005203
0.00538729
0.00556966
0.00574979
0.00592735
0.00610202
0.00627347
0.0064414
0.00660547
0.00676538
0.00692081
0.00707147
0.00721705
0.00735728
0.00749187
0.00762057
0.00774311
0.00785926
0.00796879
0.00807149
0.00816718
0.00825569
0.00833684
0.00841052
0.00847661
0.00853502
0.00858568
0.00862854
0.0086636
0.00869084
0.0087103
0.00872204
0.00872614
0.0087227
0.00871186
0.00869378
0.00866865
0.00863668
0.00859812
0.00855322
0.00850228
0.00844562
0.00838359
0.00831654
0.00824487
0.008169
0.00808936
0.00800641
0.00792064
0.00783256
0.00774267
0.00765154
0.00755971
0.00746778
0.00737634
0.00728601
0.0071974
0.00711118
0.00702798
0.00694846
0.0068733
0.00680314
0.00673864
0.00668043
0.0066291
0.0065852
0.00654919
0.00652144
0.00650219
0.0064914
0.00648889
0.00649636
0.00651515
3.58164e-05
4.32658e-05
3.85803e-05
2.34129e-05
-1.28479e-07
-3.12996e-05
-6.93764e-05
-0.000113516
-0.000162861
-0.000216563
-0.000273794
-0.000333754
-0.000395686
-0.000458877
-0.000522662
-0.000586428
-0.000649609
-0.000711689
-0.000772196
-0.000830704
-0.000886827
-0.00094022
-0.00099057
-0.0010376
-0.00108107
-0.00112075
-0.00115645
-0.001188
-0.00121526
-0.00123809
-0.00125639
-0.00127005
-0.00127899
-0.00128315
-0.00128247
-0.0012769
-0.00126639
-0.00125093
-0.00123049
-0.00120504
-0.00117459
-0.00113912
-0.00109864
-0.00105314
-0.00100265
-0.000947162
-0.000886703
-0.000821291
-0.00075095
-0.000675709
-0.000595598
-0.000510653
-0.000420914
-0.000326425
-0.000227233
-0.000123392
-1.49608e-05
9.79988e-05
0.000215417
0.00033722
0.000463326
0.000593649
0.000728093
0.000866557
0.00100893
0.0011551
0.00130495
0.00145833
0.0016151
0.00177512
0.00193823
0.00210426
0.00227303
0.00244436
0.00261804
0.00279388
0.00297166
0.00315116
0.00333213
0.00351435
0.00369757
0.00388151
0.00406592
0.00425053
0.00443505
0.00461919
0.00480267
0.00498518
0.00516642
0.00534608
0.00552386
0.00569945
0.00587252
0.00604277
0.00620988
0.00637355
0.00653346
0.00668931
0.00684081
0.00698765
0.00712957
0.00726626
0.00739749
0.00752297
0.00764248
0.00775578
0.00786266
0.00796291
0.00805636
0.00814283
0.00822218
0.00829428
0.00835903
0.00841634
0.00846614
0.0085084
0.00854309
0.00857023
0.00858984
0.00860199
0.00860676
0.00860424
0.00859459
0.00857794
0.00855449
0.00852445
0.00848806
0.00844556
0.00839726
0.00834345
0.00828447
0.00822069
0.00815247
0.00808022
0.00800438
0.00792537
0.00784367
0.00775976
0.00767415
0.00758737
0.00749994
0.00741243
0.0073254
0.00723944
0.00715515
0.00707313
0.00699399
0.00691835
0.00684682
0.00678002
0.00671855
0.00666298
0.00661386
0.00657169
0.00653693
0.00650996
0.00649108
0.00648039
0.00647797
0.0064861
0.00650676
7.62452e-05
7.95016e-05
7.20653e-05
5.52628e-05
3.08549e-05
-4.27767e-07
-3.78969e-05
-8.07901e-05
-0.00012834
-0.000179789
-0.000234397
-0.000291448
-0.000350257
-0.000410176
-0.000470598
-0.000530955
-0.000590725
-0.000649425
-0.000706614
-0.000761888
-0.000814882
-0.000865267
-0.000912743
-0.000957044
-0.000997931
-0.00103519
-0.00106864
-0.0010981
-0.00112343
-0.00114451
-0.00116122
-0.00117346
-0.00118116
-0.00118423
-0.00118263
-0.0011763
-0.0011652
-0.0011493
-0.00112857
-0.001103
-0.00107256
-0.00103727
-0.000997099
-0.000952066
-0.000902173
-0.000847431
-0.000787854
-0.000723461
-0.000654273
-0.000580318
-0.000501625
-0.000418228
-0.000330166
-0.000237479
-0.000140216
-3.84283e-05
6.78283e-05
0.000178492
0.000293495
0.000412764
0.000536221
0.00066378
0.000795349
0.000930828
0.00107011
0.00121308
0.00135962
0.0015096
0.00166288
0.00181931
0.00197874
0.002141
0.00230592
0.00247331
0.002643
0.00281476
0.00298841
0.00316371
0.00334045
0.00351838
0.00369727
0.00387685
0.00405688
0.00423708
0.00441719
0.00459691
0.00477597
0.00495408
0.00513095
0.00530626
0.00547973
0.00565105
0.00581992
0.00598603
0.00614907
0.00630876
0.00646478
0.00661684
0.00676466
0.00690795
0.00704644
0.00717985
0.00730793
0.00743043
0.00754712
0.00765777
0.00776217
0.00786014
0.00795149
0.00803607
0.00811373
0.00818435
0.00824784
0.0083041
0.00835308
0.00839475
0.00842908
0.00845609
0.00847582
0.00848831
0.00849364
0.00849194
0.00848332
0.00846795
0.00844599
0.00841767
0.00838321
0.00834287
0.00829692
0.00824566
0.00818943
0.00812856
0.00806343
0.00799442
0.00792196
0.00784647
0.00776839
0.00768821
0.00760639
0.00752346
0.00743991
0.00735629
0.00727314
0.00719101
0.00711046
0.00703207
0.00695641
0.00688407
0.00681561
0.00675161
0.00669261
0.00663917
0.00659178
0.00655093
0.00651705
0.00649056
0.0064718
0.00646096
0.00645829
0.00646631
0.00648721
0.000127675
0.0001253
0.000114084
9.48389e-05
6.87927e-05
3.66326e-05
-9.9412e-07
-4.34058e-05
-8.99197e-05
-0.000139862
-0.000192571
-0.000247405
-0.000303749
-0.000361017
-0.000418654
-0.000476142
-0.000532999
-0.000588778
-0.000643067
-0.000695491
-0.000745705
-0.000793396
-0.000838283
-0.00088011
-0.000918649
-0.000953694
-0.000985064
-0.0010126
-0.00103615
-0.0010556
-0.00107083
-0.00108175
-0.00108828
-0.00109034
-0.00108788
-0.00108084
-0.00106918
-0.00105288
-0.00103189
-0.00100621
-0.000975807
-0.000940686
-0.000900837
-0.000856261
-0.000806963
-0.000752952
-0.00069424
-0.000630843
-0.000562783
-0.000490084
-0.000412774
-0.000330886
-0.000244455
-0.000153523
-5.81346e-05
4.16602e-05
0.000145807
0.000254245
0.000366909
0.000483728
0.000604626
0.000729517
0.000858314
0.000990917
0.00112722
0.00126712
0.0014105
0.00155722
0.00170714
0.00186014
0.00201606
0.00217472
0.00233598
0.00249964
0.00266553
0.00283344
0.00300317
0.00317451
0.00334724
0.00352113
0.00369594
0.00387143
0.00404734
0.00422341
0.00439938
0.00457497
0.00474991
0.00492391
0.00509669
0.00526795
0.00543741
0.00560477
0.00576973
0.005932
0.00609128
0.00624727
0.0063997
0.00654826
0.00669269
0.0068327
0.00696802
0.0070984
0.00722358
0.00734333
0.00745742
0.00756563
0.00766775
0.00776361
0.00785303
0.00793585
0.00801195
0.0080812
0.00814351
0.0081988
0.00824701
0.0082881
0.00832208
0.00834894
0.00836872
0.00838148
0.0083873
0.00838628
0.00837856
0.00836429
0.00834364
0.00831683
0.00828406
0.0082456
0.00820172
0.0081527
0.00809888
0.00804057
0.00797815
0.00791199
0.0078425
0.00777008
0.00769517
0.00761823
0.00753973
0.00746013
0.00737995
0.00729968
0.00721985
0.00714098
0.00706362
0.00698829
0.00691554
0.00684592
0.00677996
0.00671819
0.00666114
0.00660931
0.00656317
0.0065232
0.00648981
0.00646342
0.00644442
0.00643307
0.00642967
0.00643676
0.00645645
0.000188565
0.00017951
0.000163674
0.000141271
0.000112891
7.91651e-05
4.06958e-05
-1.91696e-06
-4.80719e-05
-9.71718e-05
-0.000148629
-0.000201872
-0.000256348
-0.000311529
-0.000366914
-0.000422031
-0.000476439
-0.000529726
-0.000581513
-0.000631449
-0.000679215
-0.000724516
-0.000767088
-0.00080669
-0.000843104
-0.000876137
-0.000905613
-0.000931378
-0.000953293
-0.000971238
-0.000985105
-0.000994801
-0.00100025
-0.00100137
-0.000998107
-0.000990415
-0.000978248
-0.000961571
-0.000940357
-0.000914584
-0.000884235
-0.000849301
-0.000809776
-0.000765657
-0.000716949
-0.000663659
-0.000605797
-0.000543378
-0.000476422
-0.000404951
-0.000328992
-0.000248574
-0.000163734
-7.45091e-05
1.90567e-05
0.000116916
0.000219014
0.000325295
0.000435695
0.000550145
0.000668569
0.000790887
0.000917012
0.00104685
0.00118029
0.00131724
0.00145758
0.00160118
0.0017479
0.00189762
0.00205018
0.00220543
0.0023632
0.00252332
0.0026856
0.00284986
0.00301589
0.00318349
0.00335244
0.00352253
0.00369351
0.00386514
0.00403719
0.00420939
0.00438149
0.00455322
0.00472431
0.00489449
0.00506347
0.00523097
0.00539671
0.00556039
0.00572174
0.00588045
0.00603625
0.00618884
0.00633795
0.00648329
0.00662459
0.00676158
0.00689399
0.00702159
0.00714411
0.00726133
0.00737303
0.00747899
0.00757902
0.00767294
0.00776058
0.0078418
0.00791645
0.00798443
0.00804565
0.00810002
0.0081475
0.00818805
0.00822167
0.00824835
0.00826815
0.00828111
0.00828732
0.00828689
0.00827993
0.0082666
0.00824708
0.00822156
0.00819027
0.00815345
0.00811136
0.00806429
0.00801256
0.00795648
0.00789641
0.00783272
0.0077658
0.00769604
0.00762387
0.00754973
0.00747406
0.00739733
0.00732001
0.00724259
0.00716557
0.00708944
0.00701472
0.00694192
0.00687154
0.00680411
0.00674012
0.00668007
0.00662446
0.00657376
0.00652842
0.00648888
0.00645557
0.00642889
0.00640925
0.00639693
0.00639228
0.00639764
0.00641491
0.000257397
0.000240925
0.000219814
0.000193652
0.000162337
0.000126443
8.65286e-05
4.31127e-05
-3.28198e-06
-5.21303e-05
-0.000102913
-0.000155124
-0.00020827
-0.000261879
-0.000315499
-0.000368703
-0.00042109
-0.000472286
-0.00052194
-0.000569732
-0.000615364
-0.000658564
-0.000699085
-0.000736702
-0.00077121
-0.000802426
-0.000830186
-0.000854342
-0.000874762
-0.000891331
-0.000903946
-0.000912517
-0.000916965
-0.000917223
-0.000913232
-0.000904942
-0.000892311
-0.000875305
-0.000853895
-0.000828059
-0.00079778
-0.000763047
-0.000723853
-0.000680194
-0.000632074
-0.000579498
-0.000522474
-0.000461017
-0.000395144
-0.000324876
-0.000250237
-0.000171256
-8.79659e-05
-4.03861e-07
9.13888e-05
0.000187366
0.000287478
0.000391667
0.000499874
0.000612032
0.000728067
0.000847902
0.000971452
0.00109862
0.00122932
0.00136344
0.00150086
0.00164147
0.00178514
0.00193173
0.0020811
0.00223309
0.00238754
0.00254429
0.00270316
0.00286396
0.0030265
0.00319057
0.00335597
0.00352247
0.00368985
0.00385788
0.00402631
0.0041949
0.00436339
0.00453152
0.00469903
0.00486565
0.0050311
0.00519512
0.00535741
0.0055177
0.0056757
0.00583114
0.00598373
0.00613319
0.00627925
0.00642163
0.00656006
0.00669428
0.00682403
0.00694907
0.00706916
0.00718407
0.00729359
0.0073975
0.00749561
0.00758776
0.00767377
0.00775351
0.00782684
0.00789365
0.00795385
0.00800737
0.00805416
0.00809419
0.00812745
0.00815395
0.00817372
0.00818683
0.00819334
0.00819338
0.00818706
0.00817453
0.00815596
0.00813155
0.00810152
0.00806609
0.00802554
0.00798015
0.0079302
0.00787604
0.00781799
0.00775641
0.00769168
0.0076242
0.00755436
0.00748258
0.00740931
0.00733499
0.00726008
0.00718503
0.00711033
0.00703645
0.00696388
0.0068931
0.0068246
0.00675885
0.00669634
0.00663753
0.00658289
0.00653286
0.00648788
0.00644836
0.00641471
0.00638734
0.00636663
0.00635288
0.00634646
0.00634939
0.00636326
0.000332749
0.00030836
0.000281485
0.000251075
0.000216322
0.000177743
0.00013586
9.11129e-05
4.39504e-05
-5.17038e-06
-5.57949e-05
-0.000107476
-0.000159779
-0.000212281
-0.000264581
-0.000316295
-0.00036706
-0.000416536
-0.000464406
-0.000510376
-0.000554174
-0.000595549
-0.000634272
-0.000670135
-0.000702949
-0.000732541
-0.000758759
-0.000781463
-0.00080053
-0.00081585
-0.000827327
-0.000834873
-0.000838416
-0.000837888
-0.000833234
-0.000824406
-0.000811363
-0.00079407
-0.000772499
-0.000746629
-0.000716443
-0.000681927
-0.000643075
-0.000599883
-0.000552351
-0.000500484
-0.00044429
-0.00038378
-0.000318971
-0.000249882
-0.000176535
-9.89578e-05
-1.71807e-05
6.87613e-05
0.000158829
0.000252978
0.000351161
0.000453324
0.000559407
0.000669349
0.000783077
0.000900518
0.00102159
0.0011462
0.00127426
0.00140566
0.00154029
0.00167804
0.00181879
0.00196239
0.00210872
0.00225762
0.00240893
0.00256249
0.00271813
0.00287567
0.00303491
0.00319566
0.00335771
0.00352086
0.00368487
0.00384952
0.00401457
0.00417979
0.00434491
0.0045097
0.00467389
0.00483722
0.00499941
0.0051602
0.00531932
0.00547648
0.00563141
0.00578384
0.00593349
0.00608008
0.00622334
0.00636301
0.00649883
0.00663052
0.00675785
0.00688057
0.00699844
0.00711125
0.00721878
0.00732082
0.0074172
0.00750773
0.00759226
0.00767065
0.00774276
0.0078085
0.00786778
0.00792051
0.00796666
0.00800619
0.0080391
0.00806539
0.0080851
0.0080983
0.00810505
0.00810546
0.00809966
0.00808779
0.00807001
0.00804653
0.00801755
0.0079833
0.00794405
0.00790006
0.00785162
0.00779907
0.00774271
0.00768291
0.00762002
0.00755443
0.00748653
0.00741673
0.00734545
0.00727311
0.00720016
0.00712704
0.0070542
0.00698211
0.00691121
0.00684199
0.00677488
0.00671035
0.00664886
0.00659083
0.00653672
0.00648693
0.00644189
0.00640198
0.00636759
0.00633912
0.00631693
0.00630132
0.00629264
0.00629256
0.00630228
0.000413315
0.000380688
0.000347693
0.000312652
0.000274046
0.000232347
0.000188047
0.000141512
9.31194e-05
4.32639e-05
-7.65973e-06
-5.92611e-05
-0.000111158
-0.000162978
-0.000214363
-0.000264973
-0.000314482
-0.000362585
-0.000408996
-0.000453448
-0.000495694
-0.000535505
-0.000572673
-0.000607006
-0.000638329
-0.000666485
-0.000691331
-0.000712739
-0.000730593
-0.000744791
-0.000755243
-0.000761867
-0.000764594
-0.000763361
-0.000758116
-0.000748811
-0.000735408
-0.000717875
-0.000696183
-0.000670311
-0.000640242
-0.000605963
-0.000567467
-0.000524749
-0.000477808
-0.000426648
-0.000371276
-0.000311703
-0.000247941
-0.00018001
-0.000107929
-3.17236e-05
4.85768e-05
0.00013294
0.000221328
0.000313701
0.000410012
0.00051021
0.00061424
0.000722039
0.000833541
0.000948673
0.00106736
0.00118951
0.00131503
0.00144383
0.00157579
0.00171082
0.00184878
0.00198954
0.00213297
0.00227893
0.00242727
0.00257782
0.00273041
0.00288486
0.003041
0.00319863
0.00335755
0.00351755
0.00367841
0.00383991
0.00400182
0.0041639
0.00432591
0.0044876
0.00464872
0.004809
0.00496819
0.00512602
0.00528222
0.00543651
0.00558863
0.00573831
0.00588528
0.00602925
0.00616998
0.00630719
0.00644062
0.00657003
0.00669516
0.00681578
0.00693165
0.00704256
0.00714829
0.00724866
0.00734346
0.00743254
0.00751573
0.0075929
0.00766392
0.00772868
0.0077871
0.00783911
0.00788466
0.00792373
0.00795629
0.00798237
0.00800199
0.00801523
0.00802214
0.00802284
0.00801745
0.0080061
0.00798897
0.00796624
0.00793812
0.00790484
0.00786665
0.00782382
0.00777663
0.0077254
0.00767044
0.00761209
0.0075507
0.00748666
0.00742033
0.00735212
0.00728243
0.00721167
0.00714026
0.00706864
0.00699723
0.00692649
0.00685683
0.00678872
0.00672257
0.00665882
0.0065979
0.00654024
0.00648623
0.00643627
0.00639077
0.00635008
0.00631458
0.00628462
0.00626056
0.0062427
0.00623134
0.00622776
0.00623275
0.000497906
0.00045685
0.000417486
0.00037752
0.00033473
0.000289553
0.000242457
0.00019374
0.000143717
9.27217e-05
4.10948e-05
-1.08264e-05
-6.27088e-05
-0.000114227
-0.000165067
-0.000214926
-0.000263516
-0.000310566
-0.00035582
-0.000399038
-0.000439997
-0.000478493
-0.000514336
-0.000547351
-0.000577381
-0.000604281
-0.000627922
-0.000648184
-0.000664963
-0.000678165
-0.000687705
-0.000693509
-0.000695512
-0.000693656
-0.000687891
-0.000678173
-0.000664467
-0.00064674
-0.000624968
-0.000599128
-0.000569205
-0.000535185
-0.000497061
-0.000454827
-0.000408483
-0.000358032
-0.000303477
-0.00024483
-0.000182101
-0.000115308
-4.44685e-05
3.03934e-05
0.000109251
0.000192075
0.000278829
0.000369474
0.000463969
0.000562263
0.000664304
0.000770033
0.000879387
0.000992296
0.00110868
0.00122847
0.00135156
0.00147787
0.00160729
0.0017397
0.00187501
0.00201307
0.00215376
0.00229693
0.00244245
0.00259015
0.00273986
0.00289143
0.00304465
0.00319936
0.00335534
0.0035124
0.00367033
0.0038289
0.00398789
0.00414707
0.0043062
0.00446503
0.00462332
0.00478081
0.00493724
0.00509236
0.00524589
0.00539757
0.00554713
0.00569431
0.00583884
0.00598045
0.00611888
0.00625387
0.00638517
0.00651252
0.00663568
0.00675441
0.00686849
0.0069777
0.00708183
0.00718068
0.00727408
0.00736186
0.00744385
0.00751993
0.00758996
0.00765385
0.0077115
0.00776286
0.00780786
0.00784648
0.00787871
0.00790457
0.00792409
0.00793731
0.00794433
0.00794524
0.00794015
0.00792921
0.00791258
0.00789045
0.00786301
0.0078305
0.00779316
0.00775125
0.00770506
0.00765487
0.00760101
0.00754381
0.00748362
0.00742078
0.00735568
0.0072887
0.00722022
0.00715066
0.0070804
0.00700988
0.0069395
0.00686969
0.00680086
0.00673343
0.00666783
0.00660445
0.0065437
0.00648599
0.00643169
0.00638118
0.00633484
0.006293
0.00625602
0.00622423
0.00619795
0.00617747
0.00616308
0.0061556
0.00615544
0.000585444
0.000535864
0.000489968
0.000444858
0.000397622
0.000348675
0.000298467
0.000247236
0.000195236
0.000142749
9.0064e-05
3.74692e-05
-1.47485e-05
-6.63076e-05
-0.000116934
-0.000166364
-0.000214344
-0.000260635
-0.000305011
-0.000347259
-0.000387181
-0.000424595
-0.00045933
-0.000491231
-0.000520156
-0.000545975
-0.00056857
-0.000587834
-0.000603674
-0.000616002
-0.000624743
-0.000629828
-0.000631198
-0.000628801
-0.000622589
-0.000612525
-0.000598572
-0.000580703
-0.000558893
-0.000533121
-0.000503374
-0.000469637
-0.000431904
-0.000390168
-0.000344429
-0.000294687
-0.000240948
-0.000183219
-0.000121511
-5.58388e-05
1.37808e-05
8.73267e-05
0.000164774
0.000246095
0.000331257
0.000420223
0.000512954
0.000609403
0.00070952
0.00081325
0.000920532
0.0010313
0.00114548
0.00126299
0.00138376
0.00150768
0.00163466
0.0017646
0.00189737
0.00203287
0.00217095
0.0023115
0.00245435
0.00259936
0.00274638
0.00289522
0.00304572
0.00319769
0.00335094
0.00350526
0.00366046
0.00381632
0.00397261
0.00412911
0.00428559
0.00444179
0.00459749
0.00475243
0.00490634
0.00505899
0.0052101
0.00535941
0.00550666
0.00565159
0.00579393
0.00593342
0.00606979
0.0062028
0.00633218
0.00645769
0.0065791
0.00669616
0.00680865
0.00691635
0.00701906
0.00711659
0.00720875
0.00729537
0.00737631
0.00745142
0.00752058
0.00758369
0.00764066
0.00769142
0.00773593
0.00777415
0.00780607
0.0078317
0.00785109
0.00786427
0.00787134
0.00787237
0.0078675
0.00785685
0.0078406
0.00781891
0.007792
0.00776007
0.00772338
0.00768217
0.00763673
0.00758734
0.00753432
0.00747798
0.00741867
0.00735673
0.00729253
0.00722643
0.00715882
0.00709008
0.00702061
0.00695081
0.00688107
0.0068118
0.00674341
0.00667628
0.00661082
0.00654742
0.00648646
0.00642832
0.00637336
0.00632195
0.00627441
0.00623109
0.0061923
0.00615834
0.00612952
0.00610611
0.00608838
0.00607671
0.00607108
0.000674953
0.000616823
0.000564296
0.000513883
0.000462002
0.00040905
0.00035547
0.000301444
0.000247174
0.000192891
0.000138839
8.52588e-05
3.23956e-05
-1.951e-05
-7.02225e-05
-0.000119514
-0.000167165
-0.000212967
-0.000256723
-0.000298246
-0.000337364
-0.000373914
-0.000407748
-0.000438727
-0.000466726
-0.00049163
-0.000513334
-0.000531744
-0.000546775
-0.000558351
-0.000566402
-0.000570869
-0.000571698
-0.000568842
-0.000562259
-0.000551912
-0.000537772
-0.000519812
-0.000498009
-0.000472345
-0.000442805
-0.000409378
-0.000372056
-0.000330833
-0.000285709
-0.000236682
-0.000183758
-0.000126942
-6.62449e-05
-1.67833e-06
6.67418e-05
0.000138997
0.000215064
0.000294917
0.000378527
0.00046586
0.000556878
0.000651538
0.000749793
0.000851591
0.000956875
0.00106558
0.00117764
0.00129298
0.00141151
0.00153315
0.00165781
0.00178538
0.00191575
0.00204881
0.00218444
0.00232249
0.00246284
0.00260532
0.0027498
0.00289609
0.00304404
0.00319346
0.00334416
0.00349596
0.00364863
0.00380198
0.00395579
0.00410983
0.00426387
0.00441768
0.00457102
0.00472363
0.00487527
0.00502568
0.00517461
0.00532179
0.00546697
0.00560988
0.00575027
0.00588787
0.00602242
0.00615367
0.00628137
0.00640527
0.00652513
0.00664072
0.00675182
0.00685821
0.00695969
0.00705606
0.00714714
0.00723277
0.00731279
0.00738706
0.00745547
0.0075179
0.00757427
0.00762451
0.00766857
0.00770642
0.00773805
0.00776347
0.00778271
0.00779583
0.00780289
0.00780399
0.00779925
0.0077888
0.0077728
0.00775142
0.00772487
0.00769336
0.00765712
0.00761641
0.00757149
0.00752266
0.00747022
0.00741447
0.00735576
0.00729442
0.0072308
0.00716527
0.00709819
0.00702994
0.00696091
0.00689146
0.00682201
0.00675292
0.00668458
0.00661738
0.0065517
0.00648792
0.00642638
0.00636746
0.0063115
0.00625883
0.00620978
0.00616465
0.00612374
0.00608733
0.00605568
0.00602907
0.00600776
0.00599166
0.00598034
0.000765544
0.000698889
0.000639682
0.00058386
0.000527183
0.000470043
0.000412879
0.000355826
0.000299036
0.000242697
0.000187008
0.00013217
7.83878e-05
2.58635e-05
-2.52035e-05
-7.46191e-05
-0.000122196
-0.000167756
-0.000211129
-0.000252154
-0.000290683
-0.000326574
-0.000359699
-0.000389938
-0.000417182
-0.00044133
-0.000462292
-0.000479986
-0.000494336
-0.000505276
-0.000512747
-0.000516695
-0.000517073
-0.00051384
-0.000506959
-0.000496398
-0.00048213
-0.000464131
-0.000442381
-0.000416864
-0.000387567
-0.000354478
-0.00031759
-0.000276898
-0.000232399
-0.000184095
-0.000131988
-7.60823e-05
-1.63874e-05
4.70864e-05
0.000114325
0.000185312
0.000260026
0.000338446
0.000420542
0.000506285
0.000595639
0.000688564
0.000785017
0.000884949
0.000988305
0.00109503
0.00120505
0.0013183
0.0014347
0.00155416
0.0016766
0.00180192
0.00193002
0.00206077
0.00219406
0.00232977
0.00246775
0.00260787
0.00274996
0.00289388
0.00303945
0.0031865
0.00333485
0.00348429
0.00363464
0.00378569
0.00393722
0.00408901
0.00424084
0.00439247
0.00454367
0.00469419
0.00484378
0.00499219
0.00513917
0.00528446
0.0054278
0.00556893
0.00570759
0.00584353
0.00597648
0.0061062
0.00623244
0.00635494
0.00647347
0.0065878
0.00669771
0.00680298
0.0069034
0.00699879
0.00708895
0.00717374
0.00725298
0.00732654
0.0073943
0.00745615
0.00751201
0.0075618
0.00760548
0.00764301
0.00767438
0.00769959
0.00771869
0.00773171
0.00773873
0.00773984
0.00773516
0.00772481
0.00770896
0.00768776
0.00766143
0.00763017
0.00759421
0.0075538
0.0075092
0.0074607
0.0074086
0.00735319
0.00729481
0.00723379
0.00717046
0.00710519
0.00703833
0.00697025
0.00690131
0.0068319
0.00676237
0.00669311
0.00662449
0.00655688
0.00649063
0.00642611
0.00636367
0.00630363
0.00624634
0.0061921
0.00614123
0.006094
0.00605069
0.00601156
0.00597684
0.0059468
0.0059217
0.00590099
0.00588384
0.000856409
0.000781289
0.000715391
0.000654093
0.000592512
0.000531043
0.000470126
0.000409855
0.000350335
0.000291718
0.000234161
0.000177828
0.000122886
6.9502e-05
1.78411e-05
-3.19347e-05
-7.96687e-05
-0.000125211
-0.000168417
-0.000209154
-0.000247292
-0.000282715
-0.000315313
-0.000344983
-0.000371632
-0.000395177
-0.000415539
-0.000432647
-0.00044644
-0.000456859
-0.000463855
-0.000467381
-0.000467398
-0.00046387
-0.000456765
-0.000446057
-0.000431721
-0.000413737
-0.000392088
-0.00036676
-0.00033774
-0.000305019
-0.000268589
-0.000228447
-0.00018459
-0.000137017
-8.57299e-05
-3.07338e-05
2.79647e-05
9.03564e-05
0.000156429
0.000226169
0.000299557
0.000376572
0.000457191
0.000541385
0.000629121
0.000720364
0.000815072
0.0009132
0.0010147
0.00111951
0.00122757
0.00133882
0.00145318
0.00157056
0.0016909
0.00181408
0.00194001
0.00206858
0.00219967
0.00233317
0.00246893
0.00260683
0.0027467
0.00288841
0.00303177
0.00317663
0.00332279
0.00347008
0.0036183
0.00376724
0.00391669
0.00406645
0.00421627
0.00436594
0.00451522
0.00466386
0.00481162
0.00495826
0.00510352
0.00524714
0.00538887
0.00552844
0.00566561
0.00580012
0.0059317
0.00606011
0.00618509
0.00630641
0.00642382
0.00653709
0.006646
0.00675033
0.00684988
0.00694446
0.00703387
0.00711796
0.00719656
0.00726954
0.00733678
0.00739816
0.0074536
0.00750302
0.00754638