/*--------------------------------*- C++ -*----------------------------------*\
| =========                 |                                                 |
| \\      /  F ield         | OpenFOAM: The Open Source CFD Toolbox           |
|  \\    /   O peration     | Version:  2.1.1                                 |
|   \\  /    A nd           | Web:      www.OpenFOAM.org                      |
|    \\/     M anipulation  |                                                 |
\*---------------------------------------------------------------------------*/
FoamFile
{
    version     2.0;
    format      ascii;
    class       surfaceScalarField;
    location    "0.2";
    object      phi;
}
// * * * * * * * * * * * * * * * * * * * * * * * * * * * * * * * * * * * * * //

dimensions      [0 3 -1 0 0 0 0];

internalField   nonuniform List<scalar> 
51520
(
1.89961e-12
-1.89958e-12
8.80914e-12
-6.90953e-12
1.82055e-11
-9.39634e-12
2.77891e-11
-9.58364e-12
3.60271e-11
-8.23795e-12
4.19217e-11
-5.89461e-12
4.48376e-11
-2.91591e-12
4.43887e-11
4.48884e-13
4.03588e-11
4.02987e-12
3.26483e-11
7.7105e-12
2.12388e-11
1.14096e-11
6.16905e-12
1.50697e-11
-1.24811e-11
1.86501e-11
-3.46029e-11
2.21219e-11
-6.00674e-11
2.54645e-11
-8.87314e-11
2.8664e-11
-1.20442e-10
3.17109e-11
-1.55042e-10
3.45995e-11
-1.92369e-10
3.73267e-11
-2.3226e-10
3.98917e-11
-2.74555e-10
4.2295e-11
-3.19094e-10
4.45386e-11
-3.65719e-10
4.66253e-11
-4.14278e-10
4.85586e-11
-4.6462e-10
5.03426e-11
-5.16602e-10
5.19816e-11
-5.70082e-10
5.34803e-11
-6.24926e-10
5.48434e-11
-6.81001e-10
5.60757e-11
-7.38183e-10
5.71819e-11
-7.9635e-10
5.81668e-11
-8.55385e-10
5.9035e-11
-9.15176e-10
5.97907e-11
-9.75614e-10
6.04384e-11
-1.0366e-09
6.09819e-11
-1.09802e-09
6.1425e-11
-1.15979e-09
6.17713e-11
-1.22182e-09
6.20241e-11
-1.284e-09
6.21865e-11
-1.34626e-09
6.22611e-11
-1.40851e-09
6.22506e-11
-1.47067e-09
6.21571e-11
-1.53265e-09
6.19828e-11
-1.59438e-09
6.17293e-11
-1.65578e-09
6.13984e-11
-1.71677e-09
6.09912e-11
-1.77728e-09
6.0509e-11
-1.83724e-09
5.99526e-11
-1.89656e-09
5.93228e-11
-1.95518e-09
5.86203e-11
-2.01302e-09
5.78454e-11
-2.07002e-09
5.69984e-11
-2.1261e-09
5.60797e-11
-2.18119e-09
5.50892e-11
-2.23522e-09
5.40269e-11
-2.28811e-09
5.2893e-11
-2.3398e-09
5.16872e-11
-2.39021e-09
5.04096e-11
-2.43927e-09
4.90599e-11
-2.48691e-09
4.76381e-11
-2.53305e-09
4.61442e-11
-2.57763e-09
4.45782e-11
-2.62057e-09
4.29402e-11
-2.6618e-09
4.12303e-11
-2.70125e-09
3.94488e-11
-2.73884e-09
3.75961e-11
-2.77452e-09
3.56728e-11
-2.8082e-09
3.36795e-11
-2.83981e-09
3.16172e-11
-2.8693e-09
2.9487e-11
-2.89659e-09
2.729e-11
-2.92162e-09
2.50278e-11
-2.94432e-09
2.27021e-11
-2.96463e-09
2.03148e-11
-2.9825e-09
1.78682e-11
-2.99787e-09
1.53646e-11
-3.01067e-09
1.28069e-11
-3.02087e-09
1.0198e-11
-3.02841e-09
7.54115e-12
-3.03325e-09
4.83993e-12
-3.03535e-09
2.09816e-12
-3.03467e-09
-6.80047e-13
-3.03118e-09
-3.49032e-12
-3.02485e-09
-6.32797e-12
-3.01566e-09
-9.18808e-12
-3.0036e-09
-1.20654e-11
-2.98864e-09
-1.49546e-11
-2.9708e-09
-1.78498e-11
-2.95005e-09
-2.07451e-11
-2.92642e-09
-2.36343e-11
-2.8999e-09
-2.65111e-11
-2.87054e-09
-2.93688e-11
-2.83834e-09
-3.22008e-11
-2.80333e-09
-3.5e-11
-2.76558e-09
-3.77596e-11
-2.7251e-09
-4.04722e-11
-2.68197e-09
-4.31306e-11
-2.63624e-09
-4.57277e-11
-2.58799e-09
-4.82559e-11
-2.53728e-09
-5.0708e-11
-2.4842e-09
-5.30767e-11
-2.42885e-09
-5.53548e-11
-2.37131e-09
-5.75349e-11
-2.3117e-09
-5.96101e-11
-2.25013e-09
-6.15735e-11
-2.18671e-09
-6.34183e-11
-2.12157e-09
-6.5138e-11
-2.05485e-09
-6.67264e-11
-1.98667e-09
-6.81773e-11
-1.91719e-09
-6.94852e-11
-1.84654e-09
-7.06447e-11
-1.77489e-09
-7.16507e-11
-1.70239e-09
-7.24986e-11
-1.62921e-09
-7.31843e-11
-1.5555e-09
-7.37039e-11
-1.48145e-09
-7.40542e-11
-1.40722e-09
-7.42324e-11
-1.33298e-09
-7.42362e-11
-1.25892e-09
-7.40637e-11
-1.1852e-09
-7.37138e-11
-1.11202e-09
-7.31858e-11
-1.03954e-09
-7.24794e-11
-9.67943e-10
-7.15952e-11
-8.97409e-10
-7.05342e-11
-8.28111e-10
-6.92979e-11
-7.60222e-10
-6.78886e-11
-6.93913e-10
-6.6309e-11
-6.29351e-10
-6.45625e-11
-5.66698e-10
-6.2653e-11
-5.06113e-10
-6.05851e-11
-4.47749e-10
-5.83639e-11
-3.91754e-10
-5.59951e-11
-3.38268e-10
-5.34851e-11
-2.87428e-10
-5.08409e-11
-2.39358e-10
-4.80698e-11
-1.94177e-10
-4.51803e-11
-1.51996e-10
-4.21811e-11
-1.12915e-10
-3.90818e-11
-7.70217e-11
-3.58929e-11
-4.43963e-11
-3.26254e-11
-1.51046e-11
-2.92916e-11
1.08002e-11
-2.59049e-11
3.32798e-11
-2.24796e-11
5.23117e-11
-1.90319e-11
6.78916e-11
-1.55798e-11
8.0035e-11
-1.21435e-11
8.8781e-11
-8.74592e-12
9.41948e-11
-5.41382e-12
9.63732e-11
-2.17841e-12
9.54501e-11
9.23092e-13
9.16046e-11
3.84552e-12
8.50713e-11
6.53325e-12
7.61551e-11
8.91623e-12
6.52503e-11
1.09048e-11
5.28684e-11
1.23819e-11
3.96758e-11
1.31926e-11
2.65416e-11
1.31342e-11
1.45872e-11
1.19543e-11
5.23289e-12
9.35433e-12
1.42286e-13
5.0906e-12
1.42283e-13
6.91142e-12
-8.811e-12
2.18352e-11
-2.18333e-11
4.01251e-11
-2.76863e-11
5.78212e-11
-2.72797e-11
7.18001e-11
-2.22169e-11
7.9762e-11
-1.38564e-11
8.00891e-11
-3.24301e-12
7.16952e-11
8.84273e-12
5.38966e-11
2.18285e-11
2.63114e-11
3.52957e-11
-1.12171e-11
4.89381e-11
-5.86776e-11
6.25302e-11
-1.15934e-10
7.59062e-11
-1.82756e-10
8.89445e-11
-2.58848e-10
1.01556e-10
-3.43861e-10
1.13677e-10
-4.37413e-10
1.25263e-10
-5.39097e-10
1.36284e-10
-6.48491e-10
1.46721e-10
-7.65164e-10
1.56564e-10
-8.8868e-10
1.65811e-10
-1.01861e-09
1.74465e-10
-1.15451e-09
1.82531e-10
-1.29597e-09
1.90021e-10
-1.44258e-09
1.96946e-10
-1.59392e-09
2.0332e-10
-1.7496e-09
2.0916e-10
-1.90923e-09
2.1448e-10
-2.07245e-09
2.19298e-10
-2.2389e-09
2.23629e-10
-2.40823e-09
2.27492e-10
-2.58009e-09
2.30902e-10
-2.75418e-09
2.33875e-10
-2.93016e-09
2.36426e-10
-3.10775e-09
2.3857e-10
-3.28665e-09
2.40322e-10
-3.46657e-09
2.41693e-10
-3.64724e-09
2.42697e-10
-3.8284e-09
2.43344e-10
-4.00979e-09
2.43646e-10
-4.19115e-09
2.43611e-10
-4.37224e-09
2.43249e-10
-4.55282e-09
2.42566e-10
-4.73266e-09
2.4157e-10
-4.91153e-09
2.40267e-10
-5.0892e-09
2.38662e-10
-5.26545e-09
2.3676e-10
-5.44006e-09
2.34564e-10
-5.61282e-09
2.32077e-10
-5.7835e-09
2.29302e-10
-5.9519e-09
2.26241e-10
-6.11779e-09
2.22895e-10
-6.28098e-09
2.19266e-10
-6.44124e-09
2.15353e-10
-6.59837e-09
2.11158e-10
-6.75216e-09
2.06681e-10
-6.9024e-09
2.01922e-10
-7.04887e-09
1.9688e-10
-7.19136e-09
1.91556e-10
-7.32968e-09
1.8595e-10
-7.46359e-09
1.80063e-10
-7.59291e-09
1.73893e-10
-7.71741e-09
1.67443e-10
-7.8369e-09
1.60713e-10
-7.95115e-09
1.53706e-10
-8.05998e-09
1.46421e-10
-8.16317e-09
1.38864e-10
-8.26052e-09
1.31035e-10
-8.35185e-09
1.22941e-10
-8.43694e-09
1.14583e-10
-8.51562e-09
1.05969e-10
-8.5877e-09
9.71044e-11
-8.65299e-09
8.79957e-11
-8.71133e-09
7.86511e-11
-8.76254e-09
6.90794e-11
-8.80647e-09
5.92905e-11
-8.84296e-09
4.9295e-11
-8.87186e-09
3.9105e-11
-8.89305e-09
2.87333e-11
-8.90641e-09
1.81937e-11
-8.91181e-09
7.50144e-12
-8.90916e-09
-3.32757e-12
-8.89838e-09
-1.42761e-11
-8.87938e-09
-2.53261e-11
-8.85211e-09
-3.64583e-11
-8.81652e-09
-4.76525e-11
-8.77259e-09
-5.88874e-11
-8.7203e-09
-7.01411e-11
-8.65965e-09
-8.13905e-11
-8.59068e-09
-9.26117e-11
-8.51341e-09
-1.0378e-10
-8.4279e-09
-1.14871e-10
-8.33425e-09
-1.25857e-10
-8.23254e-09
-1.36712e-10
-8.12289e-09
-1.4741e-10
-8.00544e-09
-1.57923e-10
-7.88034e-09
-1.68223e-10
-7.74779e-09
-1.78281e-10
-7.60797e-09
-1.88071e-10
-7.46112e-09
-1.97564e-10
-7.30746e-09
-2.06732e-10
-7.14727e-09
-2.15547e-10
-6.98082e-09
-2.23982e-10
-6.80842e-09
-2.3201e-10
-6.63039e-09
-2.39604e-10
-6.44707e-09
-2.46739e-10
-6.25882e-09
-2.53391e-10
-6.06601e-09
-2.59534e-10
-5.86904e-09
-2.65147e-10
-5.66832e-09
-2.70207e-10
-5.46427e-09
-2.74695e-10
-5.25733e-09
-2.78591e-10
-5.04795e-09
-2.81877e-10
-4.8366e-09
-2.84538e-10
-4.62374e-09
-2.8656e-10
-4.40986e-09
-2.8793e-10
-4.19546e-09
-2.88638e-10
-3.98102e-09
-2.88674e-10
-3.76705e-09
-2.88033e-10
-3.55406e-09
-2.86709e-10
-3.34254e-09
-2.84701e-10
-3.13301e-09
-2.82007e-10
-2.92598e-09
-2.78631e-10
-2.72194e-09
-2.74575e-10
-2.52139e-09
-2.69846e-10
-2.32483e-09
-2.64453e-10
-2.13273e-09
-2.58408e-10
-1.94557e-09
-2.51722e-10
-1.76381e-09
-2.44412e-10
-1.5879e-09
-2.36495e-10
-1.41827e-09
-2.27992e-10
-1.25534e-09
-2.18926e-10
-1.0995e-09
-2.0932e-10
-9.51142e-10
-1.99203e-10
-8.10608e-10
-1.88604e-10
-6.78233e-10
-1.77556e-10
-5.5432e-10
-1.66094e-10
-4.39146e-10
-1.54256e-10
-3.32956e-10
-1.42083e-10
-2.35962e-10
-1.2962e-10
-1.48338e-10
-1.16916e-10
-7.02201e-11
-1.04023e-10
-1.70026e-12
-9.09995e-11
5.71782e-11
-7.79103e-11
1.06425e-10
-6.48265e-11
1.4611e-10
-5.18286e-11
1.76372e-10
-3.90076e-11
1.97426e-10
-2.64685e-11
2.09581e-10
-1.43328e-11
2.13247e-10
-2.74372e-12
2.08965e-10
8.12797e-12
1.97422e-10
1.80765e-11
1.79488e-10
2.68503e-11
1.56253e-10
3.41397e-11
1.29074e-10
3.95608e-11
9.96266e-11
4.26401e-11
6.99519e-11
4.28089e-11
4.2474e-11
3.94323e-11
1.9931e-11
3.18973e-11
5.08123e-12
1.99403e-11
5.22351e-12
9.41503e-12
-1.8226e-11
2.77362e-11
-4.01545e-11
4.85837e-11
-4.85337e-11
6.70207e-11
-4.57167e-11
7.9091e-11
-3.42872e-11
8.17462e-11
-1.65116e-11
7.27317e-11
5.77147e-12
5.0451e-11
3.11234e-11
1.38386e-11
5.84408e-11
-3.775e-11
8.68843e-11
-1.0463e-10
1.15818e-10
-1.8686e-10
1.44761e-10
-2.84303e-10
1.73349e-10
-3.96668e-10
2.01309e-10
-5.2355e-10
2.28439e-10
-6.6446e-10
2.54587e-10
-8.18841e-10
2.79644e-10
-9.86093e-10
3.03536e-10
-1.16558e-09
3.26211e-10
-1.35666e-09
3.47641e-10
-1.55866e-09
3.6781e-10
-1.77091e-09
3.86717e-10
-1.99275e-09
4.04371e-10
-2.22352e-09
4.20788e-10
-2.46256e-09
4.35989e-10
-2.70924e-09
4.50002e-10
-2.96294e-09
4.62854e-10
-3.22304e-09
4.74578e-10
-3.48895e-09
4.85208e-10
-3.76009e-09
4.94776e-10
-4.03592e-09
5.03317e-10
-4.31588e-09
5.10864e-10
-4.59946e-09
5.17451e-10
-4.88614e-09
5.23108e-10
-5.17544e-09
5.27868e-10
-5.46687e-09
5.31759e-10
-5.75999e-09
5.34809e-10
-6.05434e-09
5.37043e-10
-6.34948e-09
5.38486e-10
-6.64499e-09
5.39161e-10
-6.94047e-09
5.39087e-10
-7.2355e-09
5.38283e-10
-7.5297e-09
5.36766e-10
-7.82268e-09
5.34551e-10
-8.11407e-09
5.3165e-10
-8.40348e-09
5.28076e-10
-8.69056e-09
5.23838e-10
-8.97494e-09
5.18945e-10
-9.25627e-09
5.13404e-10
-9.53418e-09
5.0722e-10
-9.80834e-09
5.00398e-10
-1.00784e-08
4.92942e-10
-1.0344e-08
4.84855e-10
-1.06048e-08
4.76138e-10
-1.08604e-08
4.66793e-10
-1.11105e-08
4.56821e-10
-1.13548e-08
4.46223e-10
-1.1593e-08
4.35e-10
-1.18246e-08
4.23151e-10
-1.20493e-08
4.10679e-10
-1.22668e-08
3.97583e-10
-1.24768e-08
3.83866e-10
-1.26789e-08
3.6953e-10
-1.28727e-08
3.54577e-10
-1.3058e-08
3.39013e-10
-1.32345e-08
3.22841e-10
-1.34017e-08
3.06069e-10
-1.35593e-08
2.88703e-10
-1.37071e-08
2.70752e-10
-1.38448e-08
2.52228e-10
-1.3972e-08
2.33142e-10
-1.40884e-08
2.13509e-10
-1.41937e-08
1.93344e-10
-1.42877e-08
1.72665e-10
-1.43701e-08
1.51492e-10
-1.44407e-08
1.29847e-10
-1.44991e-08
1.07754e-10
-1.45453e-08
8.52403e-11
-1.45789e-08
6.23337e-11
-1.45998e-08
3.90655e-11
-1.46077e-08
1.54689e-11
-1.46026e-08
-8.42061e-12
-1.45843e-08
-3.25652e-11
-1.45527e-08
-5.69248e-11
-1.45077e-08
-8.14572e-11
-1.44493e-08
-1.06118e-10
-1.43773e-08
-1.3086e-10
-1.42918e-08
-1.55636e-10
-1.41928e-08
-1.80395e-10
-1.40803e-08
-2.05084e-10
-1.39545e-08
-2.29651e-10
-1.38153e-08
-2.54039e-10
-1.3663e-08
-2.78191e-10
-1.34976e-08
-3.0205e-10
-1.33195e-08
-3.25557e-10
-1.31287e-08
-3.48652e-10
-1.29257e-08
-3.71274e-10
-1.27106e-08
-3.93363e-10
-1.24838e-08
-4.14857e-10
-1.22457e-08
-4.35696e-10
-1.19966e-08
-4.55818e-10
-1.1737e-08
-4.75164e-10
-1.14673e-08
-4.93673e-10
-1.1188e-08
-5.11288e-10
-1.08997e-08
-5.27951e-10
-1.06028e-08
-5.43606e-10
-1.0298e-08
-5.582e-10
-9.98585e-09
-5.71681e-10
-9.667e-09
-5.84e-10
-9.3421e-09
-5.95108e-10
-9.01183e-09
-6.04963e-10
-8.6769e-09
-6.13524e-10
-8.33802e-09
-6.20751e-10
-7.99595e-09
-6.26612e-10
-7.65144e-09
-6.31074e-10
-7.30525e-09
-6.34113e-10
-6.95819e-09
-6.35704e-10
-6.61103e-09
-6.35829e-10
-6.26459e-09
-6.34475e-10
-5.91967e-09
-6.31631e-10
-5.57708e-09
-6.27292e-10
-5.23763e-09
-6.21458e-10
-4.90212e-09
-6.14134e-10
-4.57137e-09
-6.05328e-10
-4.24616e-09
-5.95056e-10
-3.92728e-09
-5.83336e-10
-3.61549e-09
-5.70193e-10
-3.31156e-09
-5.55656e-10
-3.01621e-09
-5.3976e-10
-2.73016e-09
-5.22543e-10
-2.4541e-09
-5.04052e-10
-2.18869e-09
-4.84336e-10
-1.93456e-09
-4.6345e-10
-1.69231e-09
-4.41455e-10
-1.4625e-09
-4.18417e-10
-1.24564e-09
-3.9441e-10
-1.04223e-09
-3.69511e-10
-8.52677e-10
-3.43804e-10
-6.77377e-10
-3.17383e-10
-5.1665e-10
-2.90347e-10
-3.70762e-10
-2.62804e-10
-2.39912e-10
-2.34872e-10
-1.24229e-10
-2.06683e-10
-2.37623e-11
-1.78377e-10
6.15267e-11
-1.50116e-10
1.31773e-10
-1.22075e-10
1.87223e-10
-9.44569e-11
2.28244e-10
-6.74901e-11
2.5535e-10
-4.14385e-11
2.69215e-10
-1.66088e-11
2.70704e-10
6.63848e-12
2.60904e-10
2.78765e-11
2.41159e-10
4.65955e-11
2.13113e-10
6.21856e-11
1.78757e-10
7.39176e-11
1.40466e-10
8.09308e-11
1.01032e-10
8.22425e-11
6.36525e-11
7.68121e-11
3.18523e-11
6.36975e-11
9.32593e-12
4.24667e-11
1.45494e-11
9.63564e-12
-2.78617e-11
2.74217e-11
-5.79405e-11
4.59218e-11
-6.70339e-11
5.95515e-11
-5.93465e-11
6.38798e-11
-3.86154e-11
5.54412e-11
-8.07299e-12
3.16047e-11
2.96079e-11
-9.55328e-12
7.22814e-11
-6.93651e-11
1.18253e-10
-1.48677e-10
1.66196e-10
-2.47938e-10
2.1508e-10
-3.67283e-10
2.64105e-10
-5.06592e-10
3.12658e-10
-6.65548e-10
3.60265e-10
-8.43676e-10
4.06567e-10
-1.04038e-09
4.51294e-10
-1.25498e-09
4.94246e-10
-1.48673e-09
5.3528e-10
-1.73481e-09
5.74296e-10
-1.9984e-09
6.11231e-10
-2.27664e-09
6.46049e-10
-2.56866e-09
6.78739e-10
-2.8736e-09
7.09305e-10
-3.19058e-09
7.37766e-10
-3.51874e-09
7.64154e-10
-3.85724e-09
7.88505e-10
-4.20526e-09
8.10867e-10
-4.56196e-09
8.31287e-10
-4.92658e-09
8.49818e-10
-5.29831e-09
8.66515e-10
-5.67643e-09
8.81432e-10
-6.06019e-09
8.94624e-10
-6.44888e-09
9.06145e-10
-6.84182e-09
9.16049e-10
-7.23834e-09
9.24385e-10
-7.63778e-09
9.31203e-10
-8.03953e-09
9.3655e-10
-8.44295e-09
9.40467e-10
-8.84746e-09
9.42997e-10
-9.25248e-09
9.44177e-10
-9.65743e-09
9.44041e-10
-1.00618e-08
9.42621e-10
-1.04649e-08
9.39945e-10
-1.08664e-08
9.3604e-10
-1.12657e-08
9.30928e-10
-1.16623e-08
9.24629e-10
-1.20556e-08
9.1716e-10
-1.24452e-08
9.08536e-10
-1.28305e-08
8.98769e-10
-1.32112e-08
8.87871e-10
-1.35866e-08
8.75849e-10
-1.39564e-08
8.62711e-10
-1.432e-08
8.48461e-10
-1.4677e-08
8.33105e-10
-1.50268e-08
8.16646e-10
-1.53691e-08
7.99085e-10
-1.57033e-08
7.80426e-10
-1.6029e-08
7.6067e-10
-1.63456e-08
7.39819e-10
-1.66528e-08
7.17876e-10
-1.69501e-08
6.94843e-10
-1.7237e-08
6.70725e-10
-1.7513e-08
6.45526e-10
-1.77776e-08
6.19252e-10
-1.80305e-08
5.91912e-10
-1.82712e-08
5.63516e-10
-1.84992e-08
5.34074e-10
-1.87141e-08
5.03601e-10
-1.89155e-08
4.72115e-10
-1.91029e-08
4.39633e-10
-1.92759e-08
4.06178e-10
-1.94342e-08
3.71776e-10
-1.95773e-08
3.36455e-10
-1.97049e-08
3.00247e-10
-1.98166e-08
2.63187e-10
-1.9912e-08
2.25315e-10
-1.9991e-08
1.86673e-10
-2.0053e-08
1.47307e-10
-2.0098e-08
1.07268e-10
-2.01255e-08
6.66114e-11
-2.01354e-08
2.5394e-11
-2.01275e-08
-1.63216e-11
-2.01016e-08
-5.84692e-11
-2.00576e-08
-1.00979e-10
-1.99952e-08
-1.43778e-10
-1.99146e-08
-1.86787e-10
-1.98155e-08
-2.29928e-10
-1.9698e-08
-2.73114e-10
-1.95622e-08
-3.16259e-10
-1.9408e-08
-3.59272e-10
-1.92356e-08
-4.0206e-10
-1.90451e-08
-4.44528e-10
-1.88367e-08
-4.86575e-10
-1.86106e-08
-5.28104e-10
-1.83672e-08
-5.69011e-10
-1.81067e-08
-6.09193e-10
-1.78294e-08
-6.48546e-10
-1.75358e-08
-6.86965e-10
-1.72263e-08
-7.24344e-10
-1.69014e-08
-7.60579e-10
-1.65617e-08
-7.95563e-10
-1.62076e-08
-8.29195e-10
-1.58399e-08
-8.61371e-10
-1.54592e-08
-8.9199e-10
-1.50662e-08
-9.20955e-10
-1.46617e-08
-9.48169e-10
-1.42463e-08
-9.7354e-10
-1.3821e-08
-9.96979e-10
-1.33866e-08
-1.0184e-09
-1.2944e-08
-1.03772e-09
-1.24941e-08
-1.05488e-09
-1.20378e-08
-1.06978e-09
-1.15762e-08
-1.08238e-09
-1.11102e-08
-1.09261e-09
-1.06409e-08
-1.10042e-09
-1.01692e-08
-1.10576e-09
-9.69632e-09
-1.1086e-09
-9.22324e-09
-1.10891e-09
-8.75107e-09
-1.10665e-09
-8.28088e-09
-1.10182e-09
-7.81378e-09
-1.0944e-09
-7.35084e-09
-1.08439e-09
-6.89316e-09
-1.07181e-09
-6.44181e-09
-1.05667e-09
-5.99787e-09
-1.039e-09
-5.56238e-09
-1.01883e-09
-5.13638e-09
-9.96195e-10
-4.72088e-09
-9.71156e-10
-4.31686e-09
-9.43772e-10
-3.9253e-09
-9.14112e-10
-3.54709e-09
-8.82254e-10
-3.18314e-09
-8.48286e-10
-2.83429e-09
-8.12305e-10
-2.50132e-09
-7.74418e-10
-2.185e-09
-7.34742e-10
-1.88601e-09
-6.93403e-10
-1.60498e-09
-6.5054e-10
-1.34248e-09
-6.06301e-10
-1.09901e-09
-5.60848e-10
-8.75003e-10
-5.14358e-10
-6.70787e-10
-4.6702e-10
-4.86617e-10
-4.19043e-10
-3.22646e-10
-3.70654e-10
-1.7892e-10
-3.22103e-10
-5.53669e-11
-2.73668e-10
4.82163e-11
-2.25658e-10
1.32179e-10
-1.7842e-10
1.97035e-10
-1.32346e-10
2.43481e-10
-8.78844e-11
2.72423e-10
-4.55513e-11
2.85006e-10
-5.94427e-12
2.82642e-10
3.02403e-11
2.67051e-10
6.21871e-11
2.40294e-10
8.89419e-11
2.04818e-10
1.09394e-10
1.6348e-10
1.22269e-10
1.19571e-10
1.26151e-10
7.6823e-11
1.1956e-10
3.93942e-11
1.01126e-10
1.19143e-11
6.99465e-11
2.64638e-11
8.33312e-12
-3.61948e-11
2.24709e-11
-7.20783e-11
3.46697e-11
-7.92326e-11
3.90527e-11
-6.37294e-11
3.09664e-11
-3.05291e-11
6.7464e-12
1.6147e-11
-3.64306e-11
7.27849e-11
-1.0067e-10
1.36521e-10
-1.87465e-10
2.05048e-10
-2.97793e-10
2.76523e-10
-4.32198e-10
3.49485e-10
-5.90873e-10
4.2278e-10
-7.73716e-10
4.95501e-10
-9.80395e-10
5.66943e-10
-1.21039e-09
6.36559e-10
-1.46302e-09
7.0393e-10
-1.73752e-09
7.68741e-10
-2.033e-09
8.30762e-10
-2.34853e-09
8.89826e-10
-2.68312e-09
9.45823e-10
-3.03576e-09
9.98686e-10
-3.4054e-09
1.04838e-09
-3.79101e-09
1.09491e-09
-4.19152e-09
1.13828e-09
-4.60591e-09
1.17854e-09
-5.03314e-09
1.21574e-09
-5.4722e-09
1.24992e-09
-5.92208e-09
1.28117e-09
-6.38181e-09
1.30955e-09
-6.85044e-09
1.33514e-09
-7.32703e-09
1.35802e-09
-7.81068e-09
1.37827e-09
-8.3005e-09
1.39597e-09
-8.79564e-09
1.41119e-09
-9.29525e-09
1.424e-09
-9.79853e-09
1.43448e-09
-1.03047e-08
1.4427e-09
-1.08129e-08
1.44872e-09
-1.13225e-08
1.4526e-09
-1.18328e-08
1.4544e-09
-1.23429e-08
1.45417e-09
-1.28522e-08
1.45195e-09
-1.33601e-08
1.44779e-09
-1.38657e-08
1.44173e-09
-1.43686e-08
1.43379e-09
-1.4868e-08
1.42403e-09
-1.53633e-08
1.41245e-09
-1.58538e-08
1.39908e-09
-1.6339e-08
1.38394e-09
-1.68182e-08
1.36705e-09
-1.72908e-08
1.34843e-09
-1.77561e-08
1.32807e-09
-1.82137e-08
1.306e-09
-1.86628e-08
1.28221e-09
-1.91029e-08
1.25673e-09
-1.95333e-08
1.22954e-09
-1.99535e-08
1.20066e-09
-2.0363e-08
1.17008e-09
-2.0761e-08
1.13782e-09
-2.1147e-08
1.10388e-09
-2.15204e-08
1.06827e-09
-2.18807e-08
1.03098e-09
-2.22272e-08
9.9204e-10
-2.25594e-08
9.51448e-10
-2.28767e-08
9.09222e-10
-2.31785e-08
8.65378e-10
-2.34644e-08
8.19934e-10
-2.37337e-08
7.72915e-10
-2.39859e-08
7.24346e-10
-2.42206e-08
6.7426e-10
-2.44371e-08
6.2269e-10
-2.4635e-08
5.69677e-10
-2.48138e-08
5.15266e-10
-2.49731e-08
4.59507e-10
-2.51123e-08
4.02456e-10
-2.52312e-08
3.44171e-10
-2.53292e-08
2.84722e-10
-2.54061e-08
2.24178e-10
-2.54614e-08
1.62619e-10
-2.5495e-08
1.00128e-10
-2.55064e-08
3.67942e-11
-2.54954e-08
-2.72857e-11
-2.54619e-08
-9.20108e-11
-2.54056e-08
-1.57274e-10
-2.53264e-08
-2.22962e-10
-2.52242e-08
-2.88956e-10
-2.5099e-08
-3.55134e-10
-2.49508e-08
-4.21366e-10
-2.47795e-08
-4.87519e-10
-2.45853e-08
-5.53455e-10
-2.43683e-08
-6.1903e-10
-2.41288e-08
-6.841e-10
-2.38668e-08
-7.48515e-10
-2.35828e-08
-8.12122e-10
-2.32771e-08
-8.74766e-10
-2.295e-08
-9.36289e-10
-2.2602e-08
-9.96534e-10
-2.22336e-08
-1.05534e-09
-2.18454e-08
-1.11255e-09
-2.1438e-08
-1.168e-09
-2.1012e-08
-1.22154e-09
-2.05682e-08
-1.273e-09
-2.01073e-08
-1.32223e-09
-1.96303e-08
-1.36907e-09
-1.91378e-08
-1.41339e-09
-1.86309e-08
-1.45503e-09
-1.81106e-08
-1.49386e-09
-1.75779e-08
-1.52974e-09
-1.70337e-08
-1.56253e-09
-1.64793e-08
-1.59213e-09
-1.59158e-08
-1.61841e-09
-1.53443e-08
-1.64126e-09
-1.47661e-08
-1.6606e-09
-1.41824e-08
-1.67633e-09
-1.35944e-08
-1.68837e-09
-1.30035e-08
-1.69666e-09
-1.2411e-08
-1.70112e-09
-1.18182e-08
-1.70173e-09
-1.12264e-08
-1.69844e-09
-1.0637e-08
-1.69122e-09
-1.00513e-08
-1.68008e-09
-9.47071e-09
-1.66499e-09
-8.89653e-09
-1.64599e-09
-8.33011e-09
-1.6231e-09
-7.77276e-09
-1.59635e-09
-7.22579e-09
-1.5658e-09
-6.69048e-09
-1.53151e-09
-6.16807e-09
-1.49356e-09
-5.65979e-09
-1.45206e-09
-5.16681e-09
-1.40709e-09
-4.69027e-09
-1.35879e-09
-4.23126e-09
-1.30729e-09
-3.79082e-09
-1.25275e-09
-3.36993e-09
-1.19531e-09
-2.9695e-09
-1.13517e-09
-2.59038e-09
-1.07252e-09
-2.23334e-09
-1.00758e-09
-1.89908e-09
-9.40563e-10
-1.58819e-09
-8.71733e-10
-1.30119e-09
-8.01355e-10
-1.03849e-09
-7.29725e-10
-8.0037e-10
-6.57162e-10
-5.87008e-10
-5.84015e-10
-3.98443e-10
-5.10668e-10
-2.34568e-10
-4.37543e-10
-9.51161e-11
-3.6511e-10
2.03569e-11
-2.93893e-10
1.1249e-10
-2.24479e-10
1.82141e-10
-1.57536e-10
2.3041e-10
-9.38203e-11
2.58667e-10
-3.42012e-11
2.68584e-10
2.0324e-11
2.62164e-10
6.86069e-11
2.41779e-10
1.09326e-10
2.102e-10
1.40974e-10
1.70621e-10
1.61848e-10
1.26693e-10
1.70079e-10
8.25524e-11
1.63701e-10
4.28874e-11
1.40791e-10
1.31106e-11
9.97233e-11
3.95744e-11
6.03244e-12
-4.22272e-11
1.42069e-11
-8.02527e-11
1.70188e-11
-8.20446e-11
8.62789e-12
-5.53385e-11
-1.56251e-11
-6.27618e-12
-5.94349e-11
5.99568e-11
-1.25677e-10
1.39027e-10
-2.16523e-10
2.27366e-10
-3.33535e-10
3.2206e-10
-4.77753e-10
4.20741e-10
-6.49772e-10
5.21504e-10
-8.49812e-10
6.2282e-10
-1.07778e-09
7.23469e-10
-1.33332e-09
8.22488e-10
-1.61589e-09
9.1912e-10
-1.92473e-09
1.01278e-09
-2.259e-09
1.10301e-09
-2.61771e-09
1.18947e-09
-2.99982e-09
1.27193e-09
-3.40421e-09
1.35021e-09
-3.82973e-09
1.42421e-09
-4.27519e-09
1.49385e-09
-4.73941e-09
1.55912e-09
-5.22116e-09
1.62004e-09
-5.71925e-09
1.67663e-09
-6.23249e-09
1.72897e-09
-6.75968e-09
1.77712e-09
-7.29968e-09
1.82116e-09
-7.85133e-09
1.8612e-09
-8.41352e-09
1.89733e-09
-8.98514e-09
1.92965e-09
-9.56513e-09
1.95827e-09
-1.01525e-08
1.98329e-09
-1.07461e-08
2.00481e-09
-1.1345e-08
2.02294e-09
-1.19483e-08
2.03777e-09
-1.2555e-08
2.04939e-09
-1.31641e-08
2.05789e-09
-1.37749e-08
2.06335e-09
-1.43864e-08
2.06586e-09
-1.49977e-08
2.06547e-09
-1.5608e-08
2.06226e-09
-1.62165e-08
2.05628e-09
-1.68223e-08
2.0476e-09
-1.74248e-08
2.03625e-09
-1.8023e-08
2.02227e-09
-1.86163e-08
2.00572e-09
-1.92038e-08
1.98661e-09
-1.97849e-08
1.96498e-09
-2.03587e-08
1.94086e-09
-2.09245e-08
1.91425e-09
-2.14816e-08
1.88518e-09
-2.20293e-08
1.85366e-09
-2.25668e-08
1.81971e-09
-2.30934e-08
1.78333e-09
-2.36084e-08
1.74453e-09
-2.4111e-08
1.70333e-09
-2.46007e-08
1.65972e-09
-2.50766e-08
1.61371e-09
-2.5538e-08
1.56532e-09
-2.59843e-08
1.51456e-09
-2.64147e-08
1.46143e-09
-2.68287e-08
1.40595e-09
-2.72254e-08
1.34815e-09
-2.76042e-08
1.28803e-09
-2.79644e-08
1.22562e-09
-2.83054e-08
1.16096e-09
-2.86266e-08
1.09408e-09
-2.89273e-08
1.02501e-09
-2.92068e-08
9.53812e-10
-2.94647e-08
8.80525e-10
-2.97002e-08
8.05209e-10
-2.99129e-08
7.27932e-10
-3.01021e-08
6.48764e-10
-3.02674e-08
5.67784e-10
-3.04084e-08
4.85081e-10
-3.05244e-08
4.00748e-10
-3.06151e-08
3.1489e-10
-3.06801e-08
2.27616e-10
-3.0719e-08
1.39046e-10
-3.07315e-08
4.93074e-11
-3.07173e-08
-4.14642e-11
-3.06762e-08
-1.33125e-10
-3.0608e-08
-2.25524e-10
-3.05124e-08
-3.18501e-10
-3.03895e-08
-4.1189e-10
-3.02391e-08
-5.05515e-10
-3.00613e-08
-5.99196e-10
-2.98561e-08
-6.92743e-10
-2.96236e-08
-7.85964e-10
-2.93639e-08
-8.78658e-10
-2.90774e-08
-9.70619e-10
-2.87643e-08
-1.06164e-09
-2.84249e-08
-1.1515e-09
-2.80597e-08
-1.23999e-09
-2.76691e-08
-1.32688e-09
-2.72537e-08
-1.41196e-09
-2.6814e-08
-1.49499e-09
-2.63508e-08
-1.57576e-09
-2.58648e-08
-1.65405e-09
-2.53567e-08
-1.72962e-09
-2.48274e-08
-1.80226e-09
-2.42779e-08
-1.87175e-09
-2.37091e-08
-1.93789e-09
-2.3122e-08
-2.00045e-09
-2.25178e-08
-2.05924e-09
-2.18976e-08
-2.11406e-09
-2.12626e-08
-2.16473e-09
-2.06141e-08
-2.21106e-09
-1.99533e-08
-2.25289e-09
-1.92817e-08
-2.29005e-09
-1.86005e-08
-2.3224e-09
-1.79113e-08
-2.3498e-09
-1.72155e-08
-2.37213e-09
-1.65146e-08
-2.38927e-09
-1.58102e-08
-2.40113e-09
-1.51037e-08
-2.40764e-09
-1.43967e-08
-2.40871e-09
-1.36908e-08
-2.40431e-09
-1.29876e-08
-2.3944e-09
-1.22887e-08
-2.37897e-09
-1.15957e-08
-2.35802e-09
-1.09101e-08
-2.33156e-09
-1.02336e-08
-2.29964e-09
-9.56761e-09
-2.26232e-09
-8.91375e-09
-2.21966e-09
-8.2735e-09
-2.17176e-09
-7.64834e-09
-2.11873e-09
-7.03969e-09
-2.06071e-09
-6.44893e-09
-1.99785e-09
-5.87741e-09
-1.93031e-09
-5.3264e-09
-1.8583e-09
-4.79712e-09
-1.78203e-09
-4.29071e-09
-1.70172e-09
-3.80825e-09
-1.61764e-09
-3.35071e-09
-1.53006e-09
-2.91901e-09
-1.43928e-09
-2.51395e-09
-1.34563e-09
-2.13622e-09
-1.24946e-09
-1.7864e-09
-1.15117e-09
-1.46497e-09
-1.05116e-09
-1.17225e-09
-9.49881e-10
-9.08436e-10
-8.47834e-10
-6.7355e-10
-7.45554e-10
-4.6746e-10
-6.43634e-10
-2.89843e-10
-5.42727e-10
-1.40176e-10
-4.4356e-10
-1.77132e-11
-3.46942e-10
7.85343e-11
-2.53783e-10
1.49821e-10
-1.65107e-10
1.97696e-10
-8.20759e-11
2.24027e-10
-6.00655e-12
2.3103e-10
6.16033e-11
2.21302e-10
1.19055e-10
1.97843e-10
1.64432e-10
1.64093e-10
1.95598e-10
1.23964e-10
2.10208e-10
8.1904e-11
2.05761e-10
4.30063e-11
1.79689e-10
1.32322e-11
1.29497e-10
5.28066e-11
3.08396e-12
-4.53112e-11
3.63288e-12
-8.08016e-11
-5.27752e-12
-7.31342e-11
-2.91932e-11
-3.14228e-11
-7.25957e-11
3.71263e-11
-1.3907e-10
1.26431e-10
-2.3143e-10
2.31387e-10
-3.51815e-10
3.47752e-10
-5.01779e-10
4.72024e-10
-6.82363e-10
6.01325e-10
-8.94165e-10
7.33306e-10
-1.1374e-09
8.66055e-10
-1.41196e-09
9.98033e-10
-1.71748e-09
1.128e-09
-2.05334e-09
1.25498e-09
-2.41877e-09
1.3782e-09
-2.81282e-09
1.49706e-09
-3.23444e-09
1.61109e-09
-3.68247e-09
1.71997e-09
-4.15571e-09
1.82345e-09
-4.65287e-09
1.92137e-09
-5.17265e-09
2.01363e-09
-5.71371e-09
2.10018e-09
-6.27471e-09
2.18104e-09
-6.85431e-09
2.25623e-09
-7.45117e-09
2.32582e-09
-8.06394e-09
2.38989e-09
-8.69133e-09
2.44855e-09
-9.33203e-09
2.5019e-09
-9.98478e-09
2.55008e-09
-1.06483e-08
2.59319e-09
-1.13215e-08
2.63139e-09
-1.2003e-08
2.66479e-09
-1.26917e-08
2.69354e-09
-1.33865e-08
2.71774e-09
-1.40863e-08
2.73754e-09
-1.47899e-08
2.75304e-09
-1.54964e-08
2.76436e-09
-1.62046e-08
2.77161e-09
-1.69137e-08
2.77488e-09
-1.76225e-08
2.77427e-09
-1.83301e-08
2.76985e-09
-1.90355e-08
2.76172e-09
-1.97378e-08
2.74994e-09
-2.04362e-08
2.73457e-09
-2.11296e-08
2.71566e-09
-2.18171e-08
2.69328e-09
-2.2498e-08
2.66746e-09
-2.31712e-08
2.63824e-09
-2.3836e-08
2.60565e-09
-2.44915e-08
2.56972e-09
-2.51368e-08
2.53047e-09
-2.5771e-08
2.48793e-09
-2.63934e-08
2.44211e-09
-2.70031e-08
2.39303e-09
-2.75993e-08
2.34069e-09
-2.81811e-08
2.28512e-09
-2.87477e-08
2.22632e-09
-2.92983e-08
2.1643e-09
-2.9832e-08
2.09909e-09
-3.03482e-08
2.03069e-09
-3.08459e-08
1.95912e-09
-3.13243e-08
1.88441e-09
-3.17828e-08
1.80658e-09
-3.22204e-08
1.72567e-09
-3.26365e-08
1.6417e-09
-3.30302e-08
1.55472e-09
-3.34009e-08
1.46477e-09
-3.37478e-08
1.37192e-09
-3.40702e-08
1.27623e-09
-3.43675e-08
1.17775e-09
-3.46389e-08
1.07659e-09
-3.48837e-08
9.72815e-10
-3.51015e-08
8.66534e-10
-3.52916e-08
7.57853e-10
-3.54534e-08
6.46889e-10
-3.55864e-08
5.3377e-10
-3.56902e-08
4.18636e-10
-3.57642e-08
3.01636e-10
-3.58081e-08
1.82929e-10
-3.58214e-08
6.26877e-11
-3.5804e-08
-5.89073e-11
-3.57555e-08
-1.81663e-10
-3.56756e-08
-3.05378e-10
-3.55643e-08
-4.29837e-10
-3.54213e-08
-5.54819e-10
-3.52468e-08
-6.80091e-10
-3.50405e-08
-8.0541e-10
-3.48028e-08
-9.30527e-10
-3.45335e-08
-1.05518e-09
-3.42331e-08
-1.17911e-09
-3.39017e-08
-1.30204e-09
-3.35396e-08
-1.42368e-09
-3.31474e-08
-1.54377e-09
-3.27253e-08
-1.662e-09
-3.22741e-08
-1.77809e-09
-3.17944e-08
-1.89173e-09
-3.12867e-08
-2.00264e-09
-3.0752e-08
-2.11052e-09
-3.01909e-08
-2.21507e-09
-2.96046e-08
-2.31599e-09
-2.89938e-08
-2.413e-09
-2.83598e-08
-2.50581e-09
-2.77035e-08
-2.59413e-09
-2.70263e-08
-2.67769e-09
-2.63293e-08
-2.75622e-09
-2.56139e-08
-2.82947e-09
-2.48815e-08
-2.89718e-09
-2.41334e-08
-2.95912e-09
-2.33712e-08
-3.01506e-09
-2.25965e-08
-3.0648e-09
-2.18108e-08
-3.10813e-09
-2.10157e-08
-3.14488e-09
-2.02129e-08
-3.17488e-09
-1.94042e-08
-3.19799e-09
-1.85913e-08
-3.21408e-09
-1.77759e-08
-3.22305e-09
-1.69598e-08
-3.2248e-09
-1.61448e-08
-3.21928e-09
-1.53328e-08
-3.20645e-09
-1.45254e-08
-3.18628e-09
-1.37247e-08
-3.15877e-09
-1.29323e-08
-3.12396e-09
-1.215e-08
-3.0819e-09
-1.13797e-08
-3.03265e-09
-1.0623e-08
-2.97633e-09
-9.88174e-09
-2.91306e-09
-9.15748e-09
-2.84298e-09
-8.4519e-09
-2.76629e-09
-7.76657e-09
-2.68318e-09
-7.103e-09
-2.59388e-09
-6.46266e-09
-2.49865e-09
-5.84691e-09
-2.39777e-09
-5.25707e-09
-2.29156e-09
-4.69434e-09
-2.18037e-09
-4.15984e-09
-2.06455e-09
-3.65459e-09
-1.94453e-09
-3.17949e-09
-1.82073e-09
-2.73533e-09
-1.69362e-09
-2.32277e-09
-1.56373e-09
-1.94231e-09
-1.43161e-09
-1.59433e-09
-1.29786e-09
-1.27904e-09
-1.16313e-09
-9.96451e-10
-1.02814e-09
-7.46414e-10
-8.93671e-10
-5.28561e-10
-7.6058e-10
-3.42305e-10
-6.29816e-10
-1.86816e-10
-5.02431e-10
-6.10031e-11
-3.79596e-10
3.65078e-11
-2.62618e-10
1.07399e-10
-1.52967e-10
1.53683e-10
-5.22906e-11
1.77731e-10
3.75553e-11
1.82296e-10
1.14489e-10
1.70545e-10
1.76183e-10
1.46087e-10
2.20056e-10
1.13022e-10
2.43273e-10
7.60179e-11
2.42764e-10
4.04359e-11
2.15271e-10
1.25462e-11
1.57387e-10
6.53528e-11
-2.7534e-13
-4.50358e-11
-8.51346e-12
-7.25635e-11
-3.08697e-11
-5.0778e-11
-7.24129e-11
1.01205e-11
-1.37301e-10
1.02015e-10
-2.28894e-10
2.18025e-10
-3.49846e-10
3.52339e-10
-5.02187e-10
5.00092e-10
-6.87391e-10
6.57228e-10
-9.06444e-10
8.20379e-10
-1.1599e-09
9.86764e-10
-1.44795e-09
1.1541e-09
-1.77043e-09
1.32052e-09
-2.12694e-09
1.48451e-09
-2.51682e-09
1.64487e-09
-2.93923e-09
1.80061e-09
-3.39317e-09
1.95099e-09
-3.8775e-09
2.09542e-09
-4.39098e-09
2.23345e-09
-4.9323e-09
2.36477e-09
-5.50008e-09
2.48915e-09
-6.0929e-09
2.60645e-09
-6.70931e-09
2.7166e-09
-7.34785e-09
2.81958e-09
-8.00704e-09
2.91542e-09
-8.68541e-09
3.00419e-09
-9.3815e-09
3.08598e-09
-1.00939e-08
3.16091e-09
-1.08211e-08
3.2291e-09
-1.15617e-08
3.2907e-09
-1.23143e-08
3.34586e-09
-1.30777e-08
3.39474e-09
-1.38504e-08
3.43749e-09
-1.46311e-08
3.47429e-09
-1.54187e-08
3.50527e-09
-1.62117e-08
3.53059e-09
-1.70091e-08
3.5504e-09
-1.78095e-08
3.56483e-09
-1.86119e-08