/*--------------------------------*- C++ -*----------------------------------*\
| =========                 |                                                 |
| \\      /  F ield         | OpenFOAM: The Open Source CFD Toolbox           |
|  \\    /   O peration     | Version:  2.1.1                                 |
|   \\  /    A nd           | Web:      www.OpenFOAM.org                      |
|    \\/     M anipulation  |                                                 |
\*---------------------------------------------------------------------------*/
FoamFile
{
    version     2.0;
    format      ascii;
    class       volVectorField;
    location    "0.2";
    object      U;
}
// * * * * * * * * * * * * * * * * * * * * * * * * * * * * * * * * * * * * * //

dimensions      [0 1 -1 0 0 0 0];

internalField   nonuniform List<vector> 
25921
(
(3.6786e-07 -3.67688e-07 0)
(3.04305e-06 -1.75131e-06 0)
(8.53229e-06 -2.49683e-06 0)
(1.49072e-05 -2.62334e-06 0)
(2.08225e-05 -2.35895e-06 0)
(2.54896e-05 -1.86219e-06 0)
(2.84038e-05 -1.23125e-06 0)
(2.92466e-05 -5.27948e-07 0)
(2.78319e-05 2.09141e-07 0)
(2.4064e-05 9.55802e-07 0)
(1.7909e-05 1.69649e-06 0)
(9.37642e-06 2.42103e-06 0)
(-1.49337e-06 3.12266e-06 0)
(-1.46382e-05 3.79697e-06 0)
(-2.99802e-05 4.44109e-06 0)
(-4.74309e-05 5.05325e-06 0)
(-6.68944e-05 5.63248e-06 0)
(-8.827e-05 6.17841e-06 0)
(-0.000111454 6.69106e-06 0)
(-0.000136343 7.17081e-06 0)
(-0.000162832 7.61825e-06 0)
(-0.000190816 8.03414e-06 0)
(-0.000220195 8.41937e-06 0)
(-0.000250867 8.7749e-06 0)
(-0.000282736 9.10177e-06 0)
(-0.000315706 9.40103e-06 0)
(-0.000349687 9.67375e-06 0)
(-0.000384588 9.921e-06 0)
(-0.000420324 1.01438e-05 0)
(-0.000456812 1.03433e-05 0)
(-0.000493973 1.05203e-05 0)
(-0.00053173 1.06759e-05 0)
(-0.000570009 1.0811e-05 0)
(-0.00060874 1.09265e-05 0)
(-0.000647853 1.1023e-05 0)
(-0.000687284 1.11015e-05 0)
(-0.000726968 1.11626e-05 0)
(-0.000766845 1.12069e-05 0)
(-0.000806855 1.12352e-05 0)
(-0.000846941 1.12478e-05 0)
(-0.000887047 1.12453e-05 0)
(-0.000927119 1.12281e-05 0)
(-0.000967105 1.11966e-05 0)
(-0.00100695 1.11511e-05 0)
(-0.00104661 1.1092e-05 0)
(-0.00108603 1.10194e-05 0)
(-0.00112517 1.09336e-05 0)
(-0.00116397 1.08347e-05 0)
(-0.00120239 1.07228e-05 0)
(-0.00124038 1.05981e-05 0)
(-0.00127789 1.04605e-05 0)
(-0.00131488 1.03103e-05 0)
(-0.0013513 1.01472e-05 0)
(-0.00138711 9.97139e-06 0)
(-0.00142226 9.78279e-06 0)
(-0.0014567 9.58136e-06 0)
(-0.00149038 9.36707e-06 0)
(-0.00152327 9.13985e-06 0)
(-0.00155531 8.89967e-06 0)
(-0.00158646 8.64647e-06 0)
(-0.00161667 8.38021e-06 0)
(-0.00164589 8.10086e-06 0)
(-0.00167409 7.80839e-06 0)
(-0.0017012 7.50281e-06 0)
(-0.00172719 7.18412e-06 0)
(-0.00175201 6.85238e-06 0)
(-0.00177561 6.50764e-06 0)
(-0.00179795 6.14999e-06 0)
(-0.00181899 5.77958e-06 0)
(-0.00183868 5.39656e-06 0)
(-0.00185697 5.00113e-06 0)
(-0.00187383 4.59354e-06 0)
(-0.0018892 4.17407e-06 0)
(-0.00190307 3.74306e-06 0)
(-0.00191537 3.30087e-06 0)
(-0.00192608 2.84793e-06 0)
(-0.00193516 2.38473e-06 0)
(-0.00194257 1.9118e-06 0)
(-0.00194829 1.4297e-06 0)
(-0.00195229 9.39079e-07 0)
(-0.00195453 4.40624e-07 0)
(-0.00195499 -6.49241e-08 0)
(-0.00195365 -5.76766e-07 0)
(-0.00195049 -1.09405e-06 0)
(-0.0019455 -1.61588e-06 0)
(-0.00193866 -2.1413e-06 0)
(-0.00192996 -2.6693e-06 0)
(-0.0019194 -3.19882e-06 0)
(-0.00190697 -3.72878e-06 0)
(-0.00189268 -4.25802e-06 0)
(-0.00187653 -4.78535e-06 0)
(-0.00185853 -5.30956e-06 0)
(-0.0018387 -5.82939e-06 0)
(-0.00181705 -6.34354e-06 0)
(-0.00179362 -6.85071e-06 0)
(-0.00176842 -7.34954e-06 0)
(-0.00174149 -7.83869e-06 0)
(-0.00171287 -8.31677e-06 0)
(-0.00168259 -8.78242e-06 0)
(-0.00165072 -9.23426e-06 0)
(-0.00161728 -9.6709e-06 0)
(-0.00158235 -1.0091e-05 0)
(-0.00154599 -1.04931e-05 0)
(-0.00150825 -1.0876e-05 0)
(-0.00146921 -1.12384e-05 0)
(-0.00142894 -1.15789e-05 0)
(-0.00138753 -1.18963e-05 0)
(-0.00134505 -1.21895e-05 0)
(-0.00130159 -1.24572e-05 0)
(-0.00125724 -1.26985e-05 0)
(-0.00121209 -1.29122e-05 0)
(-0.00116625 -1.30975e-05 0)
(-0.00111981 -1.32535e-05 0)
(-0.00107287 -1.33793e-05 0)
(-0.00102555 -1.34742e-05 0)
(-0.000977941 -1.35376e-05 0)
(-0.000930166 -1.3569e-05 0)
(-0.000882331 -1.35679e-05 0)
(-0.000834551 -1.3534e-05 0)
(-0.000786939 -1.34669e-05 0)
(-0.00073961 -1.33666e-05 0)
(-0.000692678 -1.3233e-05 0)
(-0.000646258 -1.30662e-05 0)
(-0.000600465 -1.28664e-05 0)
(-0.000555412 -1.26338e-05 0)
(-0.000511211 -1.23688e-05 0)
(-0.000467973 -1.20719e-05 0)
(-0.000425807 -1.17437e-05 0)
(-0.000384818 -1.13849e-05 0)
(-0.000345112 -1.09964e-05 0)
(-0.000306787 -1.0579e-05 0)
(-0.000269941 -1.01338e-05 0)
(-0.000234667 -9.66188e-06 0)
(-0.000201053 -9.16451e-06 0)
(-0.000169185 -8.64302e-06 0)
(-0.000139141 -8.09886e-06 0)
(-0.000110995 -7.53359e-06 0)
(-8.48135e-05 -6.9489e-06 0)
(-6.06588e-05 -6.34661e-06 0)
(-3.85851e-05 -5.72865e-06 0)
(-1.86389e-05 -5.09716e-06 0)
(-8.59017e-07 -4.45444e-06 0)
(1.47249e-05 -3.803e-06 0)
(2.80931e-05 -3.1456e-06 0)
(3.92364e-05 -2.48541e-06 0)
(4.81582e-05 -1.82591e-06 0)
(5.48756e-05 -1.17118e-06 0)
(5.94214e-05 -5.2595e-07 0)
(6.18471e-05 1.04111e-07 0)
(6.22259e-05 7.12101e-07 0)
(6.06573e-05 1.28941e-06 0)
(5.72729e-05 1.825e-06 0)
(5.22439e-05 2.30432e-06 0)
(4.57927e-05 2.70764e-06 0)
(3.82069e-05 3.00735e-06 0)
(2.98616e-05 3.16391e-06 0)
(2.12476e-05 3.12115e-06 0)
(1.30018e-05 2.80269e-06 0)
(5.94008e-06 2.10938e-06 0)
(1.13165e-06 9.64935e-07 0)
(-2.78253e-07 -2.77636e-07 0)
(1.75196e-06 -3.04241e-06 0)
(8.48085e-06 -8.47743e-06 0)
(1.97064e-05 -1.11324e-05 0)
(3.19023e-05 -1.12647e-05 0)
(4.25219e-05 -9.59333e-06 0)
(4.98808e-05 -6.7003e-06 0)
(5.27573e-05 -3.00683e-06 0)
(5.02979e-05 1.1871e-06 0)
(4.19482e-05 5.67079e-06 0)
(2.73783e-05 1.02963e-05 0)
(6.42482e-06 1.49587e-05 0)
(-2.09514e-05 1.95832e-05 0)
(-5.46972e-05 2.41159e-05 0)
(-9.46905e-05 2.85184e-05 0)
(-0.000140758 3.27632e-05 0)
(-0.00019269 3.68311e-05 0)
(-0.00025025 4.07092e-05 0)
(-0.00031318 4.43893e-05 0)
(-0.000381214 4.78668e-05 0)
(-0.000454076 5.11399e-05 0)
(-0.000531485 5.4209e-05 0)
(-0.000613161 5.70761e-05 0)
(-0.000698826 5.97442e-05 0)
(-0.000788205 6.22177e-05 0)
(-0.000881027 6.45014e-05 0)
(-0.000977028 6.66006e-05 0)
(-0.00107595 6.85211e-05 0)
(-0.00117754 7.02686e-05 0)
(-0.00128156 7.18492e-05 0)
(-0.00138777 7.32687e-05 0)
(-0.00149594 7.45331e-05 0)
(-0.00160586 7.56481e-05 0)
(-0.00171731 7.66192e-05 0)
(-0.00183008 7.74517e-05 0)
(-0.00194398 7.81507e-05 0)
(-0.00205881 7.8721e-05 0)
(-0.0021744 7.91671e-05 0)
(-0.00229055 7.9493e-05 0)
(-0.0024071 7.97028e-05 0)
(-0.00252388 7.97998e-05 0)
(-0.00264072 7.97873e-05 0)
(-0.00275747 7.96683e-05 0)
(-0.00287397 7.94452e-05 0)
(-0.00299006 7.91204e-05 0)
(-0.0031056 7.86958e-05 0)
(-0.00322045 7.81732e-05 0)
(-0.00333444 7.7554e-05 0)
(-0.00344746 7.68395e-05 0)
(-0.00355934 7.60306e-05 0)
(-0.00366996 7.5128e-05 0)
(-0.00377918 7.41325e-05 0)
(-0.00388686 7.30443e-05 0)
(-0.00399286 7.18639e-05 0)
(-0.00409704 7.05913e-05 0)
(-0.00419928 6.92266e-05 0)
(-0.00429943 6.77698e-05 0)
(-0.00439735 6.62208e-05 0)
(-0.00449293 6.45796e-05 0)
(-0.00458601 6.28461e-05 0)
(-0.00467646 6.10201e-05 0)
(-0.00476415 5.91018e-05 0)
(-0.00484895 5.7091e-05 0)
(-0.00493071 5.4988e-05 0)
(-0.00500931 5.2793e-05 0)
(-0.0050846 5.05064e-05 0)
(-0.00515647 4.81288e-05 0)
(-0.00522477 4.56609e-05 0)
(-0.00528938 4.31036e-05 0)
(-0.00535016 4.04581e-05 0)
(-0.005407 3.77258e-05 0)
(-0.00545977 3.49083e-05 0)
(-0.00550834 3.20077e-05 0)
(-0.0055526 2.9026e-05 0)
(-0.00559244 2.59659e-05 0)
(-0.00562774 2.28301e-05 0)
(-0.0056584 1.96218e-05 0)
(-0.00568431 1.63446e-05 0)
(-0.00570539 1.30023e-05 0)
(-0.00572155 9.59902e-06 0)
(-0.00573269 6.13939e-06 0)
(-0.00573874 2.62828e-06 0)
(-0.00573965 -9.29023e-07 0)
(-0.00573533 -4.5269e-06 0)
(-0.00572575 -8.15938e-06 0)
(-0.00571086 -1.18201e-05 0)
(-0.00569063 -1.55025e-05 0)
(-0.00566503 -1.91996e-05 0)
(-0.00563404 -2.29039e-05 0)
(-0.00559768 -2.6608e-05 0)
(-0.00555593 -3.03039e-05 0)
(-0.00550883 -3.39835e-05 0)
(-0.00545641 -3.76383e-05 0)
(-0.00539871 -4.12599e-05 0)
(-0.00533578 -4.48392e-05 0)
(-0.0052677 -4.83674e-05 0)
(-0.00519455 -5.18354e-05 0)
(-0.00511642 -5.52338e-05 0)
(-0.00503343 -5.85534e-05 0)
(-0.0049457 -6.17849e-05 0)
(-0.00485335 -6.49189e-05 0)
(-0.00475655 -6.7946e-05 0)
(-0.00465544 -7.0857e-05 0)
(-0.00455022 -7.36429e-05 0)
(-0.00444106 -7.62945e-05 0)
(-0.00432817 -7.88031e-05 0)
(-0.00421176 -8.11602e-05 0)
(-0.00409205 -8.33573e-05 0)
(-0.00396929 -8.53866e-05 0)
(-0.00384372 -8.72404e-05 0)
(-0.00371559 -8.89115e-05 0)
(-0.00358519 -9.03929e-05 0)
(-0.00345278 -9.16784e-05 0)
(-0.00331865 -9.2762e-05 0)
(-0.0031831 -9.36385e-05 0)
(-0.00304643 -9.4303e-05 0)
(-0.00290895 -9.47515e-05 0)
(-0.00277096 -9.49802e-05 0)
(-0.00263279 -9.49864e-05 0)
(-0.00249477 -9.47676e-05 0)
(-0.0023572 -9.43225e-05 0)
(-0.00222043 -9.365e-05 0)
(-0.00208477 -9.27501e-05 0)
(-0.00195056 -9.16233e-05 0)
(-0.00181811 -9.02709e-05 0)
(-0.00168776 -8.86951e-05 0)
(-0.00155981 -8.68985e-05 0)
(-0.00143459 -8.48848e-05 0)
(-0.00131239 -8.26583e-05 0)
(-0.00119353 -8.0224e-05 0)
(-0.00107829 -7.75878e-05 0)
(-0.000966956 -7.47562e-05 0)
(-0.000859807 -7.17367e-05 0)
(-0.000757104 -6.85373e-05 0)
(-0.000659094 -6.5167e-05 0)
(-0.000566015 -6.16355e-05 0)
(-0.000478088 -5.79533e-05 0)
(-0.000395518 -5.41319e-05 0)
(-0.000318491 -5.01836e-05 0)
(-0.000247176 -4.61218e-05 0)
(-0.00018172 -4.19609e-05 0)
(-0.000122248 -3.77167e-05 0)
(-6.8862e-05 -3.34063e-05 0)
(-2.16343e-05 -2.90485e-05 0)
(1.93901e-05 -2.46642e-05 0)
(5.41993e-05 -2.02765e-05 0)
(8.28182e-05 -1.59116e-05 0)
(0.000105312 -1.15992e-05 0)
(0.000121794 -7.3739e-06 0)
(0.00013243 -3.27589e-06 0)
(0.000137449 6.46893e-07 0)
(0.000137153 4.33659e-06 0)
(0.000131935 7.72222e-06 0)
(0.00012229 1.07152e-05 0)
(0.000108843 1.32036e-05 0)
(9.23751e-05 1.50437e-05 0)
(7.38568e-05 1.60507e-05 0)
(5.44831e-05 1.59915e-05 0)
(3.56816e-05 1.45905e-05 0)
(1.90929e-05 1.15575e-05 0)
(6.7455e-06 6.75387e-06 0)
(9.6077e-07 1.1301e-06 0)
(2.50208e-06 -8.53643e-06 0)
(1.11559e-05 -1.97088e-05 0)
(2.44942e-05 -2.4455e-05 0)
(3.7945e-05 -2.3748e-05 0)
(4.83287e-05 -1.88968e-05 0)
(5.34784e-05 -1.10479e-05 0)
(5.17312e-05 -1.1122e-06 0)
(4.18632e-05 1.02133e-05 0)
(2.30342e-05 2.24061e-05 0)
(-5.2908e-06 3.50774e-05 0)
(-4.34078e-05 4.79385e-05 0)
(-9.1427e-05 6.07746e-05 0)
(-0.000149315 7.34262e-05 0)
(-0.000216927 8.5775e-05 0)
(-0.000294036 9.77342e-05 0)
(-0.000380347 0.000109241 0)
(-0.000475522 0.00012025 0)
(-0.000579186 0.000130731 0)
(-0.000690939 0.000140665 0)
(-0.000810366 0.000150041 0)
(-0.000937042 0.000158855 0)
(-0.00107054 0.000167108 0)
(-0.00121042 0.000174807 0)
(-0.00135626 0.000181958 0)
(-0.00150765 0.000188574 0)
(-0.00166415 0.000194667 0)
(-0.00182537 0.000200251 0)
(-0.00199091 0.000205341 0)
(-0.00216037 0.000209952 0)
(-0.0023334 0.000214099 0)
(-0.00250961 0.000217799 0)
(-0.00268866 0.000221067 0)
(-0.0028702 0.000223917 0)
(-0.0030539 0.000226363 0)
(-0.00323945 0.00022842 0)
(-0.00342652 0.000230101 0)
(-0.00361482 0.000231418 0)
(-0.00380405 0.000232382 0)
(-0.00399393 0.000233005 0)
(-0.00418419 0.000233296 0)
(-0.00437456 0.000233264 0)
(-0.00456477 0.000232917 0)
(-0.00475456 0.000232264 0)
(-0.00494369 0.000231309 0)
(-0.00513192 0.000230059 0)
(-0.005319 0.00022852 0)
(-0.00550468 0.000226694 0)
(-0.00568875 0.000224587 0)
(-0.00587097 0.0002222 0)
(-0.0060511 0.000219537 0)
(-0.00622893 0.000216599 0)
(-0.00640422 0.000213387 0)
(-0.00657675 0.000209904 0)
(-0.00674629 0.000206149 0)
(-0.00691264 0.000202123 0)
(-0.00707555 0.000197826 0)
(-0.00723482 0.000193259 0)
(-0.00739021 0.000188421 0)
(-0.00754151 0.000183313 0)
(-0.0076885 0.000177935 0)
(-0.00783096 0.000172287 0)
(-0.00796867 0.00016637 0)
(-0.00810141 0.000160184 0)
(-0.00822896 0.000153731 0)
(-0.0083511 0.000147012 0)
(-0.00846763 0.000140029 0)
(-0.00857833 0.000132785 0)
(-0.00868299 0.000125283 0)
(-0.00878141 0.000117526 0)
(-0.00887337 0.000109519 0)
(-0.00895869 0.000101266 0)
(-0.00903717 9.27754e-05 0)
(-0.00910862 8.4052e-05 0)
(-0.00917286 7.51039e-05 0)
(-0.00922971 6.59397e-05 0)
(-0.009279 5.65687e-05 0)
(-0.00932058 4.70015e-05 0)
(-0.0093543 3.72493e-05 0)
(-0.00938001 2.73245e-05 0)
(-0.00939758 1.72405e-05 0)
(-0.00940689 7.01175e-06 0)
(-0.00940784 -3.34649e-06 0)
(-0.00940033 -1.38178e-05 0)
(-0.00938428 -2.43847e-05 0)
(-0.00935963 -3.5029e-05 0)
(-0.00932632 -4.57313e-05 0)
(-0.00928432 -5.64714e-05 0)
(-0.00923362 -6.72281e-05 0)
(-0.00917421 -7.79796e-05 0)
(-0.0091061 -8.8703e-05 0)
(-0.00902934 -9.9375e-05 0)
(-0.00894398 -0.000109971 0)
(-0.00885009 -0.000120467 0)
(-0.00874777 -0.000130837 0)
(-0.00863714 -0.000141055 0)
(-0.00851832 -0.000151096 0)
(-0.00839148 -0.000160933 0)
(-0.00825679 -0.000170539 0)
(-0.00811445 -0.000179887 0)
(-0.00796469 -0.000188951 0)
(-0.00780774 -0.000197705 0)
(-0.00764387 -0.000206121 0)
(-0.00747336 -0.000214174 0)
(-0.00729651 -0.000221838 0)
(-0.00711365 -0.000229088 0)
(-0.00692512 -0.000235899 0)
(-0.00673128 -0.000242249 0)
(-0.00653252 -0.000248114 0)
(-0.00632924 -0.000253472 0)
(-0.00612184 -0.000258303 0)
(-0.00591077 -0.000262588 0)
(-0.00569646 -0.000266309 0)
(-0.00547938 -0.000269448 0)
(-0.00525999 -0.000271991 0)
(-0.00503879 -0.000273924 0)
(-0.00481626 -0.000275236 0)
(-0.00459291 -0.000275917 0)
(-0.00436924 -0.000275957 0)
(-0.00414577 -0.000275352 0)
(-0.00392303 -0.000274096 0)
(-0.00370152 -0.000272187 0)
(-0.00348177 -0.000269626 0)
(-0.00326431 -0.000266414 0)
(-0.00304964 -0.000262554 0)
(-0.0028383 -0.000258054 0)
(-0.00263078 -0.000252921 0)
(-0.00242758 -0.000247166 0)
(-0.0022292 -0.000240802 0)
(-0.00203611 -0.000233843 0)
(-0.00184879 -0.000226306 0)
(-0.00166769 -0.000218212 0)
(-0.00149323 -0.00020958 0)
(-0.00132584 -0.000200437 0)
(-0.00116591 -0.000190807 0)
(-0.00101382 -0.000180719 0)
(-0.000869914 -0.000170205 0)
(-0.000734514 -0.000159298 0)
(-0.000607915 -0.000148035 0)
(-0.000490377 -0.000136455 0)
(-0.00038213 -0.000124602 0)
(-0.000283363 -0.000112522 0)
(-0.000194227 -0.000100266 0)
(-0.00011483 -8.78905e-05 0)
(-4.52289e-05 -7.54567e-05 0)
(1.45703e-05 -6.30335e-05 0)
(6.46221e-05 -5.06981e-05 0)
(0.000105047 -3.85381e-05 0)
(0.00013604 -2.66537e-05 0)
(0.000157883 -1.51609e-05 0)
(0.000170953 -4.19609e-06 0)
(0.000175742 6.07943e-06 0)
(0.000172874 1.54721e-05 0)
(0.000163124 2.37477e-05 0)
(0.000147449 3.0621e-05 0)
(0.000127012 3.57444e-05 0)
(0.000103213 3.86977e-05 0)
(7.7722e-05 3.89899e-05 0)
(5.24465e-05 3.60907e-05 0)
(2.94892e-05 2.95164e-05 0)
(1.153e-05 1.90931e-05 0)
(2.09806e-06 5.9258e-06 0)
(2.63804e-06 -1.49327e-05 0)
(1.13267e-05 -3.1941e-05 0)
(2.38667e-05 -3.79231e-05 0)
(3.51137e-05 -3.49718e-05 0)
(4.15335e-05 -2.5106e-05 0)
(4.0685e-05 -1.00879e-05 0)
(3.06515e-05 8.6346e-06 0)
(9.98095e-06 2.99123e-05 0)
(-2.23594e-05 5.28506e-05 0)
(-6.70549e-05 7.67599e-05 0)
(-0.000124509 0.000101111 0)
(-0.0001949 0.000125501 0)
(-0.000278221 0.00014962 0)
(-0.000374326 0.000173237 0)
(-0.000482951 0.000196175 0)
(-0.00060375 0.000218303 0)
(-0.000736306 0.000239528 0)
(-0.000880153 0.000259781 0)
(-0.00103479 0.000279018 0)
(-0.00119968 0.000297209 0)
(-0.00137429 0.000314342 0)
(-0.00155805 0.000330413 0)
(-0.00175041 0.000345427 0)
(-0.0019508 0.000359396 0)
(-0.00215868 0.000372337 0)
(-0.00237348 0.000384271 0)
(-0.00259467 0.000395223 0)
(-0.00282172 0.000405217 0)
(-0.00305411 0.000414282 0)
(-0.00329133 0.000422444 0)
(-0.0035329 0.000429733 0)
(-0.00377834 0.000436176 0)
(-0.00402718 0.000441801 0)
(-0.00427898 0.000446634 0)
(-0.00453329 0.000450701 0)
(-0.00478969 0.000454026 0)
(-0.00504778 0.000456633 0)
(-0.00530714 0.000458544 0)
(-0.00556738 0.000459779 0)
(-0.00582814 0.000460356 0)
(-0.00608904 0.000460293 0)
(-0.00634972 0.000459606 0)
(-0.00660983 0.000458308 0)
(-0.00686902 0.000456413 0)
(-0.00712695 0.000453931 0)
(-0.00738329 0.000450872 0)
(-0.00763771 0.000447246 0)
(-0.00788989 0.000443058 0)
(-0.0081395 0.000438315 0)
(-0.00838624 0.000433023 0)
(-0.00862978 0.000427184 0)
(-0.00886982 0.000420803 0)
(-0.00910604 0.000413881 0)
(-0.00933814 0.000406422 0)
(-0.00956581 0.000398425 0)
(-0.00978875 0.000389892 0)
(-0.0100067 0.000380824 0)
(-0.0102192 0.000371222 0)
(-0.0104261 0.000361086 0)
(-0.0106271 0.000350417 0)
(-0.0108218 0.000339217 0)
(-0.0110099 0.000327486 0)
(-0.0111913 0.000315227 0)
(-0.0113654 0.000302443 0)
(-0.0115322 0.000289138 0)
(-0.0116912 0.000275315 0)
(-0.0118421 0.00026098 0)
(-0.0119848 0.000246141 0)
(-0.0121189 0.000230804 0)
(-0.0122442 0.000214979 0)
(-0.0123603 0.000198676 0)
(-0.0124671 0.000181908 0)
(-0.0125642 0.000164688 0)
(-0.0126514 0.000147032 0)
(-0.0127285 0.000128956 0)
(-0.0127952 0.00011048 0)
(-0.0128514 9.16246e-05 0)
(-0.0128969 7.24121e-05 0)
(-0.0129314 5.28671e-05 0)
(-0.0129548 3.3016e-05 0)
(-0.0129669 1.28873e-05 0)
(-0.0129675 -7.48867e-06 0)
(-0.0129567 -2.80797e-05 0)
(-0.0129342 -4.88517e-05 0)
(-0.0128999 -6.97685e-05 0)
(-0.0128539 -9.07923e-05 0)
(-0.012796 -0.000111884 0)
(-0.0127263 -0.000133001 0)
(-0.0126447 -0.000154102 0)
(-0.0125513 -0.000175141 0)
(-0.0124461 -0.000196074 0)
(-0.0123293 -0.000216852 0)
(-0.0122008 -0.000237428 0)
(-0.0120609 -0.000257753 0)
(-0.0119096 -0.000277776 0)
(-0.0117473 -0.000297446 0)
(-0.0115741 -0.000316713 0)
(-0.0113902 -0.000335523 0)
(-0.0111959 -0.000353827 0)
(-0.0109915 -0.000371571 0)
(-0.0107774 -0.000388705 0)
(-0.010554 -0.000405176 0)
(-0.0103215 -0.000420935 0)
(-0.0100804 -0.000435932 0)
(-0.00983111 -0.000450119 0)
(-0.00957417 -0.000463447 0)
(-0.00931004 -0.000475873 0)
(-0.00903922 -0.000487351 0)
(-0.00876225 -0.00049784 0)
(-0.00847971 -0.000507299 0)
(-0.00819217 -0.000515693 0)
(-0.00790022 -0.000522985 0)
(-0.00760451 -0.000529143 0)
(-0.00730565 -0.00053414 0)
(-0.0070043 -0.000537948 0)
(-0.00670113 -0.000540545 0)
(-0.00639682 -0.000541912 0)
(-0.00609204 -0.000542033 0)
(-0.0057875 -0.000540896 0)
(-0.00548388 -0.000538493 0)
(-0.0051819 -0.00053482 0)
(-0.00488225 -0.000529876 0)
(-0.00458564 -0.000523667 0)
(-0.00429276 -0.000516198 0)
(-0.00400431 -0.000507484 0)
(-0.00372096 -0.00049754 0)
(-0.0034434 -0.000486388 0)
(-0.00317228 -0.000474051 0)
(-0.00290824 -0.00046056 0)
(-0.00265191 -0.000445949 0)
(-0.0024039 -0.000430256 0)
(-0.00216479 -0.000413524 0)
(-0.00193513 -0.000395799 0)
(-0.00171546 -0.000377134 0)
(-0.00150628 -0.000357586 0)
(-0.00130804 -0.000337216 0)
(-0.00112118 -0.000316092 0)
(-0.000946075 -0.000294286 0)
(-0.000783081 -0.000271877 0)
(-0.000632493 -0.000248951 0)
(-0.000494556 -0.0002256 0)
(-0.000369464 -0.000201925 0)
(-0.000257346 -0.000178038 0)
(-0.00015827 -0.000154061 0)
(-7.22284e-05 -0.000130129 0)
(8.6523e-07 -0.000106395 0)
(6.11862e-05 -8.30295e-05 0)
(0.000109009 -6.02266e-05 0)
(0.00014472 -3.82097e-05 0)
(0.000168832 -1.72375e-05 0)
(0.000182 2.38814e-06 0)
(0.000185042 2.03117e-05 0)
(0.000178959 3.61126e-05 0)
(0.000164965 4.92925e-05 0)
(0.000144505 5.92632e-05 0)
(0.000119282 6.53408e-05 0)
(9.12832e-05 6.67571e-05 0)
(6.27371e-05 6.27093e-05 0)
(3.60805e-05 5.24738e-05 0)
(1.45554e-05 3.56678e-05 0)
(2.78438e-06 1.29624e-05 0)
(2.38652e-06 -2.08951e-05 0)
(9.70449e-06 -4.26414e-05 0)
(1.91099e-05 -4.83714e-05 0)
(2.53812e-05 -4.14149e-05 0)
(2.48609e-05 -2.45765e-05 0)
(1.49676e-05 -2.57221e-07 0)
(-6.34351e-06 2.95496e-05 0)
(-4.06457e-05 6.32305e-05 0)
(-8.90831e-05 9.94981e-05 0)
(-0.000152436 0.000137335 0)
(-0.000231183 0.000175942 0)
(-0.000325548 0.000214694 0)
(-0.000435552 0.000253108 0)
(-0.000561046 0.000290808 0)
(-0.000701749 0.000327506 0)
(-0.000857272 0.000362985 0)
(-0.00102714 0.000397083 0)
(-0.00121082 0.000429681 0)
(-0.00140772 0.000460698 0)
(-0.00161722 0.00049008 0)
(-0.00183867 0.000517794 0)
(-0.00207141 0.000543829 0)
(-0.00231477 0.000568185 0)
(-0.00256807 0.000590876 0)
(-0.00283063 0.000611923 0)
(-0.0031018 0.000631355 0)
(-0.0033809 0.000649207 0)
(-0.0036673 0.000665515 0)
(-0.00396035 0.00068032 0)
(-0.00425943 0.000693664 0)
(-0.00456394 0.000705589 0)
(-0.00487328 0.000716139 0)
(-0.00518688 0.000725355 0)
(-0.00550417 0.000733278 0)
(-0.00582462 0.00073995 0)
(-0.00614768 0.000745407 0)
(-0.00647284 0.000749686 0)
(-0.0067996 0.000752822 0)
(-0.00712747 0.000754846 0)
(-0.00745597 0.000755788 0)
(-0.00778464 0.000755677 0)
(-0.00811301 0.000754535 0)
(-0.00844065 0.000752387 0)
(-0.00876711 0.000749253 0)
(-0.00909197 0.00074515 0)
(-0.0094148 0.000740095 0)
(-0.00973519 0.000734101 0)
(-0.0100527 0.000727181 0)
(-0.010367 0.000719344 0)
(-0.0106776 0.000710599 0)
(-0.0109842 0.000700953 0)
(-0.0112863 0.000690412 0)
(-0.0115836 0.000678979 0)
(-0.0118756 0.00066666 0)
(-0.012162 0.000653456 0)
(-0.0124424 0.000639369 0)
(-0.0127165 0.000624403 0)
(-0.0129837 0.000608559 0)
(-0.0132438 0.000591838 0)
(-0.0134963 0.000574242 0)
(-0.013741 0.000555776 0)
(-0.0139773 0.000536441 0)
(-0.014205 0.000516242 0)
(-0.0144236 0.000495184 0)
(-0.0146328 0.000473275 0)
(-0.0148323 0.000450521 0)
(-0.0150216 0.000426934 0)
(-0.0152005 0.000402523 0)
(-0.0153685 0.000377304 0)
(-0.0155254 0.000351291 0)
(-0.0156707 0.000324503 0)
(-0.0158042 0.00029696 0)
(-0.0159256 0.000268684 0)
(-0.0160345 0.000239703 0)
(-0.0161307 0.000210044 0)
(-0.0162139 0.000179739 0)
(-0.0162838 0.000148821 0)
(-0.0163402 0.000117329 0)
(-0.0163828 8.53029e-05 0)
(-0.0164115 5.2786e-05 0)
(-0.016426 1.9825e-05 0)
(-0.0164262 -1.35302e-05 0)
(-0.0164119 -4.7227e-05 0)
(-0.016383 -8.12094e-05 0)
(-0.0163394 -0.000115419 0)
(-0.016281 -0.000149793 0)
(-0.0162078 -0.000184268 0)
(-0.0161197 -0.000218776 0)
(-0.0160168 -0.000253248 0)
(-0.0158991 -0.000287611 0)
(-0.0157667 -0.000321791 0)
(-0.0156197 -0.000355712 0)
(-0.0154581 -0.000389294 0)
(-0.0152823 -0.00042246 0)
(-0.0150923 -0.000455126 0)
(-0.0148885 -0.000487212 0)
(-0.014671 -0.000518633 0)
(-0.0144403 -0.000549307 0)
(-0.0141966 -0.000579149 0)
(-0.0139403 -0.000608076 0)
(-0.0136718 -0.000636004 0)
(-0.0133916 -0.000662851 0)
(-0.0131002 -0.000688535 0)
(-0.012798 -0.000712977 0)
(-0.0124857 -0.000736098 0)
(-0.0121638 -0.000757821 0)
(-0.0118329 -0.000778075 0)
(-0.0114936 -0.000796786 0)
(-0.0111467 -0.00081389 0)
(-0.0107928 -0.00082932 0)
(-0.0104326 -0.000843017 0)
(-0.0100669 -0.000854925 0)
(-0.00969654 -0.000864993 0)
(-0.00932219 -0.000873173 0)
(-0.00894471 -0.000879425 0)
(-0.00856491 -0.000883711 0)
(-0.00818364 -0.000886001 0)
(-0.00780175 -0.000886271 0)
(-0.00742008 -0.000884501 0)
(-0.00703952 -0.000880678 0)
(-0.00666093 -0.000874796 0)
(-0.00628517 -0.000866855 0)
(-0.00591312 -0.000856862 0)
(-0.00554563 -0.00084483 0)
(-0.00518357 -0.00083078 0)
(-0.00482777 -0.000814739 0)
(-0.00447907 -0.000796741 0)
(-0.00413829 -0.000776828 0)
(-0.00380621 -0.000755047 0)
(-0.00348362 -0.000731455 0)
(-0.00317126 -0.000706115 0)
(-0.00286984 -0.000679096 0)
(-0.00258006 -0.000650477 0)
(-0.00230255 -0.000620343 0)
(-0.00203795 -0.000588787 0)
(-0.0017868 -0.000555912 0)
(-0.00154964 -0.000521827 0)
(-0.00132694 -0.000486652 0)
(-0.00111911 -0.000450518 0)
(-0.000926521 -0.000413564 0)
(-0.000749461 -0.000375944 0)
(-0.000588158 -0.000337824 0)
(-0.000442764 -0.000299385 0)
(-0.000313349 -0.00026083 0)
(-0.000199893 -0.000222377 0)
(-0.000102278 -0.000184275 0)
(-2.0279e-05 -0.000146798 0)
(4.64508e-05 -0.000110259 0)
(9.83893e-05 -7.50109e-05 0)
(0.000136162 -4.14598e-05 0)
(0.000160561 -1.00731e-05 0)
(0.00017256 1.86076e-05 0)
(0.000173337 4.39534e-05 0)
(0.000164296 6.52342e-05 0)
(0.000147086 8.16086e-05 0)
(0.000123627 9.21207e-05 0)
(9.61261e-05 9.57164e-05 0)
(6.70477e-05 9.12949e-05 0)
(3.91019e-05 7.78135e-05 0)
(1.59848e-05 5.44865e-05 0)
(3.10097e-06 2.11821e-05 0)
(1.90374e-06 -2.56386e-05 0)
(6.85841e-06 -5.0125e-05 0)
(1.13372e-05 -5.36226e-05 0)
(1.04466e-05 -4.0614e-05 0)
(6.0945e-07 -1.46925e-05 0)
(-2.07879e-05 2.11043e-05 0)
(-5.58234e-05 6.42438e-05 0)
(-0.000106108 0.000112651 0)
(-0.000172832 0.000164643 0)
(-0.000256819 0.000218863 0)
(-0.000358583 0.000274228 0)
(-0.000478377 0.000329877 0)
(-0.000616231 0.000385127 0)
(-0.000771996 0.000439443 0)
(-0.00094537 0.000492409 0)
(-0.00113593 0.000543704 0)
(-0.00134316 0.000593084 0)
(-0.00156646 0.000640368 0)
(-0.00180518 0.000685426 0)
(-0.00205861 0.00072817 0)
(-0.00232603 0.000768544 0)
(-0.00260668 0.00080652 0)
(-0.00289979 0.000842092 0)
(-0.00320458 0.000875269 0)
(-0.00352029 0.000906077 0)
(-0.00384612 0.00093455 0)
(-0.00418133 0.000960732 0)
(-0.00452515 0.000984671 0)
(-0.00487684 0.00100642 0)
(-0.00523568 0.00102604 0)
(-0.00560094 0.00104359 0)
(-0.00597193 0.00105912 0)
(-0.00634797 0.0010727 0)
(-0.00672839 0.00108438 0)
(-0.00711255 0.00109421 0)
(-0.00749982 0.00110226 0)
(-0.00788958 0.00110856 0)
(-0.00828123 0.00111318 0)
(-0.00867419 0.00111616 0)
(-0.00906788 0.00111753 0)
(-0.00946174 0.00111734 0)
(-0.00985524 0.00111562 0)
(-0.0102478 0.00111241 0)
(-0.010639 0.00110774 0)
(-0.0110282 0.00110163 0)
(-0.0114149 0.0010941 0)
(-0.0117987 0.00108518 0)
(-0.0121791 0.00107488 0)
(-0.0125555 0.00106322 0)
(-0.0129275 0.00105022 0)
(-0.0132945 0.00103587 0)
(-0.0136562 0.00102019 0)
(-0.0140121 0.00100319 0)
(-0.0143616 0.00098488 0)
(-0.0147044 0.000965255 0)
(-0.0150399 0.000944322 0)
(-0.0153677 0.000922087 0)
(-0.0156873 0.000898553 0)
(-0.0159983 0.000873723 0)
(-0.0163003 0.000847601 0)
(-0.0165927 0.000820193 0)
(-0.0168751 0.000791505 0)
(-0.0171471 0.000761543 0)
(-0.0174082 0.000730317 0)
(-0.017658 0.000697838 0)
(-0.0178961 0.000664118 0)
(-0.018122 0.000629173 0)
(-0.0183354 0.000593021 0)
(-0.0185357 0.000555683 0)
(-0.0187226 0.000517182 0)
(-0.0188958 0.000477547 0)
(-0.0190547 0.000436808 0)
(-0.0191991 0.000395 0)
(-0.0193286 0.000352162 0)
(-0.0194429 0.000308337 0)
(-0.0195416 0.000263571 0)
(-0.0196244 0.000217915 0)
(-0.019691 0.000171425 0)
(-0.0197412 0.000124161 0)
(-0.0197747 7.61872e-05 0)
(-0.0197913 2.75729e-05 0)
(-0.0197908 -2.16086e-05 0)
(-0.0197731 -7.12796e-05 0)
(-0.0197379 -0.000121358 0)
(-0.0196852 -0.000171757 0)
(-0.0196148 -0.000222385 0)
(-0.0195268 -0.000273149 0)
(-0.0194211 -0.00032395 0)
(-0.0192978 -0.000374685 0)
(-0.0191568 -0.000425248 0)
(-0.0189983 -0.000475532 0)
(-0.0188224 -0.000525423 0)
(-0.0186293 -0.000574808 0)
(-0.0184191 -0.00062357 0)
(-0.0181922 -0.00067159 0)
(-0.0179487 -0.000718748 0)
(-0.0176891 -0.000764924 0)
(-0.0174136 -0.000809995 0)
(-0.0171228 -0.000853839 0)
(-0.016817 -0.000896335 0)
(-0.0164968 -0.00093736 0)
(-0.0161626 -0.000976795 0)
(-0.0158151 -0.00101452 0)
(-0.0154548 -0.00105042 0)
(-0.0150825 -0.00108438 0)
(-0.0146987 -0.0011163 0)
(-0.0143042 -0.00114605 0)
(-0.0138999 -0.00117355 0)
(-0.0134864 -0.00119869 0)
(-0.0130646 -0.00122138 0)
(-0.0126353 -0.00124153 0)
(-0.0121995 -0.00125906 0)
(-0.011758 -0.0012739 0)
(-0.0113118 -0.00128598 0)
(-0.0108618 -0.00129524 0)
(-0.010409 -0.00130162 0)
(-0.00995446 -0.00130509 0)
(-0.00949906 -0.0013056 0)
(-0.00904387 -0.00130313 0)
(-0.0085899 -0.00129766 0)
(-0.00813817 -0.00128918 0)
(-0.00768972 -0.0012777 0)
(-0.00724556 -0.00126322 0)
(-0.0068067 -0.00124576 0)
(-0.00637417 -0.00122535 0)
(-0.00594894 -0.00120204 0)
(-0.005532 -0.00117588 0)
(-0.0051243 -0.00114692 0)
(-0.00472678 -0.00111524 0)
(-0.00434036 -0.00108091 0)
(-0.00396589 -0.00104404 0)
(-0.00360424 -0.00100473 0)
(-0.0032562 -0.000963092 0)
(-0.00292253 -0.000919251 0)
(-0.00260394 -0.000873345 0)
(-0.00230111 -0.000825528 0)
(-0.00201464 -0.00077596 0)
(-0.00174508 -0.00072482 0)
(-0.00149292 -0.0006723 0)
(-0.00125857 -0.000618607 0)
(-0.00104236 -0.000563967 0)
(-0.000844565 -0.000508625 0)
(-0.000665342 -0.000452849 0)
(-0.000504767 -0.000396934 0)
(-0.00036281 -0.000341201 0)
(-0.000239324 -0.000286009 0)
(-0.00013404 -0.000231758 0)
(-4.65521e-05 -0.000178893 0)
(2.36934e-05 -0.000127918 0)
(7.74155e-05 -7.94042e-05 0)
(0.000115513 -3.40021e-05 0)
(0.00013908 7.54555e-06 0)
(0.000149429 4.43884e-05 0)
(0.000148104 7.55557e-05 0)
(0.000136901 9.99458e-05 0)
(0.000117893 0.000116324 0)
(9.3445e-05 0.000123338 0)
(6.62017e-05 0.000119555 0)
(3.90932e-05 0.00010354 0)
(1.6131e-05 7.39758e-05 0)
(3.15133e-06 2.97932e-05 0)
(1.28527e-06 -2.86544e-05 0)
(3.19512e-06 -5.31511e-05 0)
(1.4211e-06 -5.19762e-05 0)
(-8.31353e-06 -3.05944e-05 0)
(-2.93407e-05 6.67034e-06 0)
(-6.42128e-05 5.61757e-05 0)
(-0.000114963 0.000114873 0)
(-0.000183172 0.00018024 0)
(-0.000270018 0.000250207 0)
(-0.000376325 0.000323082 0)
(-0.000502609 0.000397494 0)
(-0.000649123 0.000472334 0)
(-0.000815894 0.000546716 0)
(-0.00100276 0.000619932 0)
(-0.00120939 0.000691424 0)
(-0.00143535 0.000760755 0)
(-0.00168006 0.00082759 0)
(-0.00194288 0.000891674 0)
(-0.0022231 0.000952821 0)
(-0.00251995 0.0010109 0)
(-0.00283263 0.00106583 0)
(-0.00316029 0.00111755 0)
(-0.0035021 0.00116605 0)
(-0.00385718 0.00121133 0)
(-0.00422467 0.00125342 0)
(-0.0046037 0.00129236 0)
(-0.00499341 0.00132819 0)
(-0.00539296 0.00136098 0)
(-0.00580149 0.00139079 0)
(-0.00621818 0.00141771 0)
(-0.00664222 0.00144179 0)
(-0.00707283 0.00146311 0)
(-0.00750921 0.00148176 0)
(-0.00795061 0.00149781 0)
(-0.00839629 0.00151132 0)
(-0.00884552 0.00152238 0)
(-0.0092976 0.00153104 0)
(-0.00975182 0.00153737 0)
(-0.0102075 0.00154143 0)
(-0.0106641 0.00154329 0)
(-0.0111208 0.00154298 0)
(-0.011577 0.00154056 0)
(-0.0120321 0.00153607 0)
(-0.0124856 0.00152956 0)
(-0.0129367 0.00152105 0)
(-0.013385 0.00151058 0)
(-0.0138298 0.00149818 0)
(-0.0142706 0.00148387 0)
(-0.0147068 0.00146767 0)
(-0.0151378 0.0014496 0)
(-0.015563 0.00142968 0)
(-0.015982 0.00140792 0)
(-0.0163942 0.00138432 0)
(-0.0167989 0.0013589 0)
(-0.0171958 0.00133167 0)
(-0.0175842 0.00130263 0)
(-0.0179637 0.00127179 0)
(-0.0183336 0.00123916 0)
(-0.0186934 0.00120474 0)
(-0.0190427 0.00116853 0)
(-0.0193809 0.00113056 0)
(-0.0197075 0.00109082 0)
(-0.020022 0.00104932 0)
(-0.0203238 0.00100609 0)
(-0.0206124 0.00096114 0)
(-0.0208874 0.000914483 0)
(-0.0211483 0.000866145 0)
(-0.0213946 0.000816153 0)
(-0.0216258 0.000764536 0)
(-0.0218414 0.000711328 0)
(-0.022041 0.000656569 0)
(-0.0222242 0.000600303 0)