/*--------------------------------*- C++ -*----------------------------------*\
| =========                 |                                                 |
| \\      /  F ield         | OpenFOAM: The Open Source CFD Toolbox           |
|  \\    /   O peration     | Version:  2.1.1                                 |
|   \\  /    A nd           | Web:      www.OpenFOAM.org                      |
|    \\/     M anipulation  |                                                 |
\*---------------------------------------------------------------------------*/
FoamFile
{
    version     2.0;
    format      ascii;
    class       volScalarField;
    location    "0.4";
    object      p;
}
// * * * * * * * * * * * * * * * * * * * * * * * * * * * * * * * * * * * * * //

dimensions      [0 2 -2 0 0 0 0];

internalField   nonuniform List<scalar> 
25921
(
-9.11322e-11
1.14017e-05
1.20835e-05
-3.02931e-06
-3.43012e-05
-8.08711e-05
-0.000141202
-0.000213457
-0.000295767
-0.000386348
-0.00048354
-0.000585826
-0.000691832
-0.000800318
-0.000910177
-0.00102041
-0.00113015
-0.00123859
-0.00134506
-0.00144892
-0.00154965
-0.00164676
-0.00173984
-0.00182853
-0.00191251
-0.00199152
-0.00206531
-0.00213369
-0.00219649
-0.00225355
-0.00230476
-0.00235001
-0.00238923
-0.00242233
-0.00244926
-0.00246998
-0.00248443
-0.00249261
-0.00249447
-0.00249001
-0.00247921
-0.00246206
-0.00243856
-0.0024087
-0.00237248
-0.0023299
-0.00228097
-0.0022257
-0.0021641
-0.00209617
-0.00202194
-0.00194143
-0.00185466
-0.00176166
-0.00166247
-0.00155712
-0.00144566
-0.00132815
-0.00120464
-0.00107521
-0.000939928
-0.000798892
-0.000652198
-0.000499954
-0.000342282
-0.000179314
-1.11978e-05
0.000161909
0.000339833
0.000522389
0.000709373
0.000900572
0.00109575
0.00129467
0.00149707
0.00170267
0.00191117
0.00212228
0.00233567
0.00255101
0.00276794
0.00298611
0.00320514
0.00342464
0.00364421
0.00386344
0.00408192
0.00429921
0.00451488
0.00472849
0.00493959
0.00514773
0.00535247
0.00555335
0.00574991
0.00594172
0.00612833
0.0063093
0.0064842
0.00665262
0.00681415
0.00696839
0.00711496
0.00725352
0.00738371
0.00750521
0.00761772
0.00772098
0.00781473
0.00789874
0.00797284
0.00803684
0.00809064
0.00813411
0.0081672
0.00818988
0.00820215
0.00820404
0.00819565
0.00817707
0.00814846
0.00811001
0.00806193
0.0080045
0.007938
0.00786278
0.0077792
0.00768767
0.00758864
0.00748257
0.00736998
0.0072514
0.00712742
0.00699863
0.00686568
0.00672922
0.00658994
0.00644857
0.00630586
0.00616257
0.00601952
0.00587751
0.0057374
0.00560007
0.0054664
0.00533733
0.00521378
0.00509672
0.00498713
0.00488598
0.00479429
0.00471302
0.00464312
0.0045855
0.00454089
0.00450985
0.00449251
0.00448828
0.00449535
0.00451005
0.00452544
-1.14009e-05
1.2746e-08
-1.50243e-06
-1.72747e-05
-4.65002e-05
-8.86787e-05
-0.000142824
-0.000207587
-0.000281507
-0.000363122
-0.000451027
-0.000543895
-0.000640499
-0.000739714
-0.000840512
-0.000941967
-0.00104324
-0.00114359
-0.00124233
-0.00133887
-0.00143267
-0.00152328
-0.00161026
-0.00169327
-0.00177196
-0.00184608
-0.00191537
-0.00197962
-0.00203865
-0.00209231
-0.00214046
-0.00218298
-0.00221979
-0.0022508
-0.00227594
-0.00229515
-0.00230839
-0.00231563
-0.00231682
-0.00231195
-0.00230099
-0.00228393
-0.00226076
-0.00223148
-0.00219607
-0.00215453
-0.00210688
-0.00205311
-0.00199323
-0.00192726
-0.00185521
-0.0017771
-0.00169296
-0.00160281
-0.00150669
-0.00140464
-0.00129671
-0.00118295
-0.00106342
-0.000938189
-0.00080734
-0.000670958
-0.000529143
-0.000382001
-0.000229652
-7.22288e-05
9.01268e-05
0.000257258
0.000428997
0.000605161
0.000785553
0.000969963
0.00115817
0.00134993
0.00154499
0.00174309
0.00194395
0.00214726
0.00235272
0.00256001
0.00276879
0.00297871
0.0031894
0.00340051
0.00361164
0.0038224
0.00403239
0.0042412
0.00444842
0.00465361
0.00485637
0.00505625
0.00525282
0.00544566
0.00563434
0.00581843
0.00599751
0.00617116
0.00633898
0.00650057
0.00665554
0.00680352
0.00694416
0.00707711
0.00720205
0.00731867
0.0074267
0.00752588
0.00761598
0.00769678
0.00776811
0.00782982
0.00788179
0.00792392
0.00795617
0.00797849
0.00799092
0.00799348
0.00798626
0.00796936
0.00794294
0.00790718
0.0078623
0.00780856
0.00774623
0.00767566
0.00759719
0.00751122
0.00741817
0.00731851
0.00721272
0.00710132
0.00698486
0.00686393
0.00673913
0.0066111
0.00648049
0.006348
0.00621433
0.00608023
0.00594645
0.00581376
0.00568298
0.00555491
0.0054304
0.0053103
0.00519547
0.00508679
0.00498514
0.0048914
0.00480643
0.00473106
0.00466607
0.00461212
0.00456976
0.00453928
0.0045206
0.00451306
0.00451519
0.00452544
0.00454083
-1.20997e-05
1.541e-06
2.49983e-08
-1.56153e-05
-4.33793e-05
-8.27002e-05
-0.000132767
-0.000192453
-0.000260531
-0.000335755
-0.000416901
-0.000502795
-0.000592331
-0.000684482
-0.0007783
-0.000872919
-0.000967549
-0.00106148
-0.00115406
-0.00124472
-0.00133294
-0.00141826
-0.00150026
-0.0015786
-0.00165294
-0.001723
-0.00178855
-0.00184936
-0.00190524
-0.00195604
-0.00200161
-0.00204184
-0.00207661
-0.00210585
-0.00212947
-0.00214741
-0.00215962
-0.00216606
-0.00216669
-0.00216148
-0.0021504
-0.00213343
-0.00211057
-0.00208179
-0.0020471
-0.00200648
-0.00195994
-0.00190749
-0.00184912
-0.00178486
-0.00171471
-0.0016387
-0.00155684
-0.00146917
-0.00137572
-0.00127653
-0.00117165
-0.00106113
-0.000945036
-0.00082343
-0.000696394
-0.000564012
-0.000426383
-0.000283613
-0.00013582
1.68684e-05
0.00017431
0.000336353
0.000502832
0.000673569
0.000848372
0.00102704
0.00120934
0.00139506
0.00158395
0.00177574
0.00197016
0.00216693
0.00236575
0.0025663
0.00276826
0.00297129
0.00317504
0.00337915
0.00358326
0.00378698
0.00398993
0.0041917
0.00439191
0.00459015
0.004786
0.00497905
0.0051689
0.00535511
0.00553729
0.00571503
0.00588791
0.00605555
0.00621755
0.00637353
0.00652312
0.00666597
0.00680173
0.00693009
0.00705072
0.00716335
0.0072677
0.00736353
0.00745063
0.00752879
0.00759785
0.00765766
0.00770811
0.00774913
0.00778065
0.00780267
0.00781518
0.00781825
0.00781194
0.00779637
0.00777168
0.00773807
0.00769573
0.00764493
0.00758594
0.00751908
0.00744469
0.00736317
0.00727491
0.00718037
0.00708002
0.00697435
0.00686391
0.00674925
0.00663096
0.00650965
0.00638594
0.00626051
0.00613403
0.00600721
0.00588077
0.00575544
0.00563199
0.0055112
0.00539384
0.00528071
0.00517263
0.00507039
0.00497481
0.00488667
0.00480674
0.00473575
0.00467436
0.00462314
0.0045825
0.00455268
0.00453364
0.00452486
0.0045254
0.00453568
0.00455554
3.00651e-06
1.73427e-05
1.56646e-05
-1.90515e-08
-2.70641e-05
-6.47458e-05
-0.000112269
-0.000168602
-0.000232649
-0.000303306
-0.000379483
-0.000460128
-0.000544239
-0.000630875
-0.000719163
-0.000808294
-0.000897531
-0.000986199
-0.00107369
-0.00115944
-0.00124296
-0.0013238
-0.00140157
-0.0014759
-0.00154649
-0.00161306
-0.00167535
-0.00173315
-0.00178628
-0.00183457
-0.00187787
-0.00191606
-0.00194903
-0.0019767
-0.00199897
-0.00201579
-0.00202709
-0.00203283
-0.00203297
-0.00202746
-0.00201629
-0.00199943
-0.00197686
-0.00194857
-0.00191455
-0.0018748
-0.0018293
-0.00177807
-0.00172111
-0.00165842
-0.00159003
-0.00151595
-0.0014362
-0.00135081
-0.00125981
-0.00116325
-0.00106117
-0.000953612
-0.00084065
-0.000722346
-0.000598778
-0.00047003
-0.000336197
-0.000197384
-5.37058e-05
9.47106e-05
0.000247728
0.000405197
0.000566957
0.000732833
0.000902638
0.00107617
0.00125323
0.00143357
0.00161697
0.00180317
0.0019919
0.00218289
0.00237584
0.00257045
0.00276641
0.00296339
0.00316105
0.00335904
0.00355701
0.00375458
0.00395138
0.00414704
0.00434116
0.00453334
0.0047232
0.00491034
0.00509435
0.00527483
0.0054514
0.00562364
0.00579118
0.00595363
0.00611062
0.00626177
0.00640673
0.00654517
0.00667674
0.00680114
0.00691808
0.00702727
0.00712846
0.00722142
0.00730593
0.00738181
0.0074489
0.00750707
0.0075562
0.00759623
0.00762711
0.00764882
0.00766137
0.00766482
0.00765924
0.00764475
0.00762149
0.00758964
0.00754941
0.00750105
0.00744482
0.00738104
0.00731005
0.00723222
0.00714795
0.00705766
0.00696183
0.00686094
0.00675549
0.00664604
0.00653314
0.0064174
0.00629941
0.00617981
0.00605926
0.00593843
0.005818
0.0056987
0.00558123
0.00546633
0.00535475
0.00524724
0.00514454
0.0050474
0.00495659
0.0048728
0.00479676
0.00472911
0.00467046
0.0046213
0.00458205
0.00455297
0.00453412
0.00452524
0.00452586
0.00453785
0.00456271
3.43566e-05
4.66757e-05
4.34751e-05
2.69366e-05
-2.06804e-07
-3.71414e-05
-8.30764e-05
-0.000137052
-0.000198077
-0.000265163
-0.000337334
-0.000413642
-0.000493183
-0.000575097
-0.000658584
-0.000742896
-0.000827346
-0.000911301
-0.000994185
-0.00107547
-0.00115469
-0.00123141
-0.00130525
-0.00137586
-0.00144294
-0.00150621
-0.00156544
-0.0016204
-0.00167091
-0.00171681
-0.00175795
-0.0017942
-0.00182545
-0.00185161
-0.0018726
-0.00188834
-0.00189877
-0.00190385
-0.00190353
-0.00189776
-0.00188652
-0.00186979
-0.00184754
-0.00181975
-0.00178642
-0.00174754
-0.00170309
-0.00165309
-0.00159754
-0.00153644
-0.0014698
-0.00139765
-0.00132
-0.00123689
-0.00114833
-0.00105437
-0.000955062
-0.000850446
-0.000740583
-0.00062554
-0.000505392
-0.000380222
-0.000250121
-0.000115193
2.44503e-05
0.000168686
0.000317379
0.000470385
0.000627546
0.000788693
0.000953644
0.0011222
0.00129417
0.00146931
0.00164741
0.00182822
0.00201147
0.00219689
0.00238422
0.00257314
0.00276336
0.00295455
0.00314639
0.00333854
0.00353065
0.00372237
0.00391333
0.00410317
0.00429151
0.00447797
0.00466216
0.00484369
0.0050222
0.00519727
0.00536854
0.00553562
0.00569812
0.0058557
0.00600796
0.00615458
0.00629519
0.00642948
0.00655712
0.00667782
0.00679128
0.00689725
0.00699547
0.00708573
0.00716781
0.00724155
0.00730679
0.0073634
0.00741128
0.00745036
0.0074806
0.00750199
0.00751454
0.00751831
0.00751337
0.00749984
0.00747785
0.00744759
0.00740926
0.0073631
0.00730938
0.00724839
0.00718049
0.00710601
0.00702535
0.00693894
0.00684721
0.00675065
0.00664974
0.00654501
0.00643701
0.0063263
0.00621348
0.00609915
0.00598394
0.0058685
0.00575348
0.00563957
0.00552744
0.00541779
0.00531132
0.00520874
0.00511076
0.00501807
0.00493137
0.00485132
0.00477858
0.00471374
0.00465736
0.00460993
0.00457185
0.00454342
0.00452487
0.0045161
0.00451704
0.00453044
0.00455875
8.11974e-05
8.91228e-05
8.29595e-05
6.45919e-05
3.64434e-05
-6.52355e-07
-4.59213e-05
-9.84762e-05
-0.000157419
-0.000221861
-0.000290925
-0.00036376
-0.000439547
-0.000517506
-0.000596904
-0.000677056
-0.000757324
-0.00083712
-0.000915905
-0.000993186
-0.00106851
-0.00114148
-0.00121172
-0.00127891
-0.00134275
-0.00140296
-0.00145933
-0.00151163
-0.00155969
-0.00160334
-0.00164244
-0.00167686
-0.00170649
-0.00173123
-0.001751
-0.00176573
-0.00177535
-0.00177982
-0.00177907
-0.00177308
-0.00176181
-0.00174523
-0.00172332
-0.00169605
-0.00166343
-0.00162542
-0.00158204
-0.00153328
-0.00147913
-0.00141961
-0.00135473
-0.00128449
-0.00120893
-0.00112806
-0.00104192
-0.00095054
-0.000853964
-0.000752241
-0.000645427
-0.000533587
-0.000416793
-0.000295125
-0.000168674
-3.75381e-05
9.81729e-05
0.000238339
0.000382831
0.000531507
0.000684213
0.000840786
0.00100105
0.00116481
0.00133188
0.00150203
0.00167504
0.00185067
0.00202868
0.00220879
0.00239074
0.00257424
0.00275899
0.00294468
0.003131
0.00331762
0.00350419
0.00369038
0.00387583
0.00406019
0.00424308
0.00442415
0.00460301
0.0047793
0.00495263
0.00512264
0.00528895
0.0054512
0.00560901
0.00576202
0.00590989
0.00605228
0.00618884
0.00631927
0.00644325
0.00656049
0.00667072
0.00677369
0.00686915
0.00695688
0.00703671
0.00710844
0.00717194
0.00722709
0.00727378
0.00731196
0.00734159
0.00736265
0.00737516
0.00737918
0.00737479
0.00736209
0.00734123
0.00731237
0.00727573
0.00723154
0.00718006
0.00712158
0.00705644
0.00698497
0.00690756
0.00682462
0.00673657
0.00664389
0.00654704
0.00644654
0.00634292
0.00623672
0.0061285
0.00601887
0.00590841
0.00579775
0.00568752
0.00557836
0.00547093
0.00536587
0.00526387
0.00516557
0.00507165
0.00498276
0.00489954
0.00482263
0.00475261
0.00469007
0.00463551
0.00458942
0.00455221
0.00452425
0.00450584
0.00449705
0.00449805
0.00451207
0.00454196
0.00014212
0.000143797
0.000133387
0.000112223
8.21625e-05
4.40135e-05
-1.47958e-06
-5.35078e-05
-0.000111261
-0.00017394
-0.000240757
-0.000310948
-0.000383772
-0.000458525
-0.000534539
-0.000611186
-0.000687881
-0.00076408
-0.000839282
-0.000913028
-0.000984896
-0.0010545
-0.00112151
-0.00118559
-0.00124646
-0.00130389
-0.00135763
-0.00140748
-0.00145327
-0.00149484
-0.00153204
-0.00156476
-0.00159288
-0.0016163
-0.00163494
-0.00164874
-0.00165762
-0.00166152
-0.00166041
-0.00165423
-0.00164296
-0.00162657
-0.00160502
-0.0015783
-0.00154639
-0.00150928
-0.00146696
-0.00141943
-0.00136669
-0.00130874
-0.00124559
-0.00117725
-0.00110375
-0.0010251
-0.000941334
-0.000852483
-0.000758589
-0.000659699
-0.000555866
-0.000447152
-0.000333626
-0.000215367
-9.246e-05
3.49977e-05
0.000166901
0.000303134
0.00044357
0.000588073
0.000736495
0.000888674
0.00104444
0.00120361
0.00136599
0.00153138
0.00169954
0.00187026
0.00204328
0.00221836
0.00239522
0.0025736
0.00275319
0.0029337
0.00311482
0.00329624
0.00347762
0.00365863
0.00383892
0.00401816
0.00419597
0.00437202
0.00454592
0.00471733
0.00488587
0.00505118
0.0052129
0.00537067
0.00552413
0.00567294
0.00581675
0.00595523
0.00608806
0.00621493
0.00633554
0.0064496
0.00655686
0.00665706
0.00674998
0.00683539
0.00691313
0.00698301
0.0070449
0.00709869
0.00714428
0.0071816
0.00721063
0.00723136
0.0072438
0.00724801
0.00724406
0.00723208
0.00721218
0.00718456
0.0071494
0.00710693
0.00705742
0.00700115
0.00693844
0.00686962
0.00679507
0.00671519
0.00663039
0.00654113
0.00644786
0.00635109
0.00625131
0.00614906
0.00604489
0.00593936
0.00583305
0.00572656
0.00562048
0.00551543
0.00541204
0.00531092
0.00521271
0.00511804
0.00502752
0.00494179
0.00486143
0.00478705
0.00471919
0.00465841
0.00460521
0.00456004
0.00452334
0.00449552
0.00447695
0.00446781
0.0044684
0.0044821
0.0045118
0.000215426
0.000209453
0.000193717
0.000168871
0.000136057
9.60324e-05
4.95025e-05
-2.80762e-06
-6.01742e-05
-0.000121882
-0.000187226
-0.000255521
-0.000326102
-0.000398332
-0.000471608
-0.000545358
-0.000619046
-0.000692174
-0.000764281
-0.000834939
-0.000903759
-0.000970382
-0.00103448
-0.00109577
-0.00115397
-0.00120885
-0.0012602
-0.00130781
-0.00135152
-0.00139117
-0.00142663
-0.00145777
-0.00148449
-0.0015067
-0.00152431
-0.00153725
-0.00154546
-0.00154887
-0.00154744
-0.00154113
-0.0015299
-0.00151373
-0.00149257
-0.00146641
-0.00143524
-0.00139904
-0.00135779
-0.0013115
-0.00126016
-0.00120377
-0.00114235
-0.00107589
-0.00100443
-0.000927964
-0.000846536
-0.000760172
-0.00066891
-0.000572795
-0.000471878
-0.000366216
-0.000255877
-0.000140936
-2.14737e-05
0.000102416
0.000230631
0.000363061
0.000499583
0.000640065
0.000784363
0.000932324
0.00108378
0.00123856
0.00139646
0.0015573
0.00172085
0.00188689
0.00205519
0.00222549
0.00239755
0.00257108
0.00274581
0.00292144
0.00309768
0.00327422
0.00345073
0.0036269
0.00380238
0.00397683
0.00414992
0.00432129
0.00449059
0.00465747
0.00482157
0.00498253
0.00514001
0.00529365
0.0054431
0.00558803
0.00572811
0.005863
0.0059924
0.006116
0.00623352
0.00634467
0.0064492
0.00654686
0.00663744
0.00672073
0.00679654
0.00686472
0.00692513
0.00697766
0.00702221
0.00705874
0.0070872
0.00710759
0.00711992
0.00712426
0.00712069
0.0071093
0.00709023
0.00706366
0.00702978
0.00698882
0.00694102
0.00688667
0.00682608
0.00675958
0.00668753
0.00661033
0.00652836
0.00644209
0.00635194
0.00625841
0.00616198
0.00606317
0.0059625
0.00586052
0.00575779
0.00565488
0.00555236
0.00545081
0.00535085
0.00525305
0.00515802
0.00506635
0.00497863
0.00489545
0.00481737
0.00474495
0.00467872
0.0046192
0.00456687
0.00452219
0.0044856
0.00445753
0.00443839
0.00442844
0.00442803
0.00444046
0.00446846
0.000299383
0.000284734
0.000262805
0.000233511
0.000197197
0.000154561
0.000106267
5.29513e-05
-4.7465e-06
-6.61912e-05
-0.000130756
-0.000197829
-0.000266817
-0.000337147
-0.000408276
-0.000479686
-0.000550892
-0.00062144
-0.000690906
-0.0007589
-0.00082506
-0.000889057
-0.000950588
-0.00100938
-0.00106518
-0.00111777
-0.00116694
-0.00121251
-0.00125432
-0.00129223
-0.00132609
-0.0013558
-0.00138125
-0.00140235
-0.00141902
-0.00143119
-0.0014388
-0.00144179
-0.00144011
-0.00143371
-0.00142257
-0.00140665
-0.00138592
-0.00136036
-0.00132994
-0.00129466
-0.0012545
-0.00120945
-0.00115952
-0.00110469
-0.00104498
-0.00098039
-0.000910936
-0.000836636
-0.000757514
-0.000673597
-0.000584922
-0.000491528
-0.000393465
-0.000290787
-0.000183557
-7.18455e-05
4.42672e-05
0.000164693
0.000289335
0.000418086
0.000550828
0.000687435
0.000827766
0.000971675
0.001119
0.00126957
0.0014232
0.0015797
0.00173885
0.00190045
0.00206427
0.00223005
0.00239756
0.00256652
0.00273667
0.00290772
0.00307938
0.00325134
0.0034233
0.00359494
0.00376593
0.00393594
0.00410463
0.00427167
0.0044367
0.00459939
0.00475938
0.00491634
0.0050699
0.00521974
0.00536551
0.00550689
0.00564353
0.00577514
0.0059014
0.00602201
0.0061367
0.00624519
0.00634723
0.00644258
0.00653102
0.00661237
0.00668642
0.00675304
0.00681209
0.00686346
0.00690705
0.00694283
0.00697074
0.0069908
0.00700301
0.00700743
0.00700414
0.00699324
0.00697488
0.00694921
0.00691642
0.00687675
0.00683043
0.00677774
0.00671898
0.00665448
0.00658459
0.0065097
0.00643018
0.00634648
0.00625903
0.00616828
0.00607473
0.00597887
0.0058812
0.00578225
0.00568256
0.00558268
0.00548315
0.00538455
0.00528744
0.00519238
0.00509995
0.0050107
0.00492521
0.00484402
0.00476766
0.00469667
0.00463156
0.00457281
0.0045209
0.00447627
0.00443936
0.00441061
0.00439046
0.00437917
0.00437714
0.00438742
0.00441247
0.00039233
0.000368274
0.000339478
0.000305099
0.000264644
0.000218753
0.000168051
0.000113088
5.44192e-05
-7.3964e-06
-7.18054e-05
-0.000138265
-0.000206248
-0.000275246
-0.000344769
-0.000414355
-0.000483565
-0.000551989
-0.000619242
-0.000684969
-0.00074884
-0.000810553
-0.00086983
-0.000926417
-0.000980086
-0.00103063
-0.00107785
-0.00112158
-0.00116168
-0.001198
-0.00123042
-0.00125883
-0.00128313
-0.00130323
-0.00131907
-0.00133056
-0.00133765
-0.00134029
-0.00133841
-0.001332
-0.00132099
-0.00130537
-0.0012851
-0.00126016
-0.00123053
-0.00119619
-0.00115713
-0.00111334
-0.00106481
-0.00101155
-0.000953541
-0.000890805
-0.000823348
-0.000751185
-0.000674338
-0.000592831
-0.000506697
-0.000415974
-0.000320705
-0.000220944
-0.000116747
-8.18332e-06
0.000104673
0.000221737
0.000342917
0.00046811
0.000597204
0.000730075
0.000866591
0.00100661
0.00114997
0.00129652
0.00144607
0.00159843
0.00175341
0.00191079
0.00207036
0.00223187
0.00239508
0.00255974
0.00272558
0.00289233
0.00305969
0.00322738
0.00339509
0.00356251
0.00372932
0.0038952
0.00405982
0.00422285
0.00438394
0.00454277
0.00469898
0.00485225
0.00500223
0.00514858
0.00529099
0.00542911
0.00556263
0.00569124
0.00581464
0.00593254
0.00604465
0.00615073
0.0062505
0.00634376
0.00643027
0.00650984
0.00658231
0.00664751
0.00670532
0.00675562
0.00679834
0.00683342
0.00686082
0.00688054
0.00689261
0.00689707
0.006894
0.0068835
0.00686572
0.0068408
0.00680894
0.00677036
0.00672529
0.00667401
0.00661682
0.00655403
0.00648598
0.00641305
0.00633562
0.00625411
0.00616894
0.00608056
0.00598944
0.00589605
0.0058009
0.00570449
0.00560733
0.00550996
0.00541291
0.00531671
0.00522191
0.00512905
0.00503866
0.0049513
0.00486749
0.00478776
0.00471261
0.00464255
0.00457806
0.00451961
0.00446766
0.00442264
0.00438498
0.0043551
0.00433346
0.00432033
0.0043161
0.00432347
0.00434453
0.000492718
0.000458748
0.000422573
0.000382592
0.000337459
0.000287761
0.000234092
0.000176916
0.00011671
5.39601e-05
-1.08498e-05
-7.7243e-05
-0.000144754
-0.000212933
-0.000281346
-0.00034958
-0.000417244
-0.000483968
-0.000549409
-0.000613244
-0.000675177
-0.000734931
-0.000792256
-0.000846919
-0.000898711
-0.00094744
-0.000992932
-0.00103503
-0.0010736
-0.0011085
-0.00113963
-0.00116688
-0.00119015
-0.00120938
-0.00122448
-0.00123539
-0.00124205
-0.0012444
-0.00124241
-0.00123602
-0.00122521
-0.00120994
-0.00119017
-0.00116589
-0.00113708
-0.0011037
-0.00106576
-0.00102324
-0.000976125
-0.000924418
-0.000868116
-0.000807223
-0.000741747
-0.000671701
-0.0005971
-0.000517969
-0.000434335
-0.000346233
-0.000253703
-0.000156793
-5.55575e-05
4.994e-05
0.000159629
0.000273431
0.000391256
0.000513008
0.000638579
0.000767852
0.000900699
0.00103698
0.00117655
0.00131925
0.00146491
0.00161333
0.00176434
0.00191773
0.00207327
0.00223074
0.00238991
0.00255052
0.00271232
0.00287503
0.00303838
0.00320208
0.00336583
0.00352933
0.00369227
0.00385433
0.00401519
0.00417451
0.00433198
0.00448726
0.00464002
0.00478991
0.00493661
0.0050798
0.00521913
0.0053543
0.00548499
0.00561089
0.0057317
0.00584715
0.00595695
0.00606084
0.00615858
0.00624995
0.00633472
0.00641271
0.00648374
0.00654767
0.00660435
0.0066537
0.00669562
0.00673006
0.00675698
0.00677639
0.0067883
0.00679277
0.00678986
0.00677968
0.00676236
0.00673806
0.00670697
0.0066693
0.00662528
0.00657519
0.0065193
0.00645794
0.00639143
0.00632015
0.00624446
0.00616477
0.0060815
0.00599508
0.00590597
0.00581463
0.00572155
0.0056272
0.0055321
0.00543675
0.00534167
0.00524736
0.00515436
0.00506318
0.00497433
0.00488834
0.00480571
0.00472693
0.00465249
0.00458288
0.00451854
0.00445994
0.00440751
0.00436166
0.00432281
0.00429138
0.00426779
0.00425233
0.00424537
0.00424917
0.00426544
0.000599117
0.00055489
0.000510959
0.000464967
0.000414712
0.000360743
0.000303626
0.000243748
0.000181508
0.000117326
5.16195e-05
-1.51958e-05
-8.2714e-05
-0.00015054
-0.000218293
-0.000285608
-0.000352138
-0.000417557
-0.000481558
-0.000543853
-0.000604176
-0.000662281
-0.000717941
-0.000770949
-0.000821113
-0.000868261
-0.000912237
-0.000952896
-0.00099011
-0.00102376
-0.00105375
-0.00107998
-0.00110236
-0.00112082
-0.0011353
-0.00114572
-0.00115203
-0.00115419
-0.00115214
-0.00114586
-0.00113529
-0.00112042
-0.0011012
-0.00107762
-0.00104965
-0.00101727
-0.00098047
-0.00093923
-0.000893543
-0.000843401
-0.000788802
-0.000729747
-0.000666239
-0.000598289
-0.00052591
-0.000449122
-0.000367949
-0.000282422
-0.000192577
-9.84575e-05
-1.14408e-07
0.000102394
0.000209002
0.000319635
0.00043421
0.000552634
0.000674805
0.000800611
0.000929931
0.00106263
0.00119857
0.00133759
0.00147953
0.00162422
0.00177145
0.00192105
0.00207279
0.00222645
0.00238181
0.00253862
0.00269663
0.00285557
0.00301518
0.00317516
0.00333524
0.00349511
0.00365447
0.00381301
0.0039704
0.00412634
0.00428049
0.00443253
0.00458212
0.00472895
0.00487268
0.00501299
0.00514956
0.00528206
0.0054102
0.00553366
0.00565216
0.0057654
0.00587313
0.00597508
0.00607101
0.0061607
0.00624392
0.0063205
0.00639026
0.00645305
0.00650875
0.00655724
0.00659844
0.00663231
0.0066588
0.00667791
0.00668966
0.0066941
0.0066913
0.00668137
0.00666443
0.00664063
0.00661017
0.00657324
0.00653008
0.00648095
0.00642614
0.00636594
0.0063007
0.00623075
0.00615648
0.00607828
0.00599654
0.00591171
0.00582421
0.00573451
0.00564306
0.00555034
0.00545685
0.00536306
0.00526947
0.00517658
0.00508489
0.0049949
0.00490711
0.004822
0.00474006
0.00466176
0.00458757
0.00451794
0.00445332
0.00439413
0.00434078
0.00429369
0.00425324
0.00421983
0.00419386
0.00417562
0.00416545
0.00416516
0.00417601
0.000710211
0.000655513
0.000603554
0.000551232
0.000495498
0.000436872
0.000375899
0.000312896
0.000248191
0.00018214
0.0001151
4.74278e-05
-2.0526e-05
-8.84191e-05
-0.00015592
-0.00022271
-0.000288487
-0.000352963
-0.000415869
-0.000476951
-0.000535974
-0.000592721
-0.000646991
-0.000698598
-0.000747374
-0.000793165
-0.00083583
-0.000875241
-0.000911283
-0.000943852
-0.000972852
-0.000998199
-0.00101981
-0.00103763
-0.00105158
-0.00106162
-0.00106768
-0.00106972
-0.0010677
-0.00106158
-0.00105132
-0.0010369
-0.00101828
-0.000995439
-0.000968353
-0.000937
-0.000901363
-0.000861426
-0.000817179
-0.000768611
-0.000715716
-0.000658494
-0.000596945
-0.000531076
-0.000460897
-0.000386423
-0.000307675
-0.00022468
-0.000137469
-4.60825e-05
4.94343e-05
0.000149028
0.000252637
0.000360192
0.000471616
0.00058682
0.000705708
0.000828175
0.000954104
0.00108337
0.00121583
0.00135134
0.00148974
0.00163087
0.00177453
0.00192053
0.00206869
0.00221876
0.00237054
0.00252379
0.00267826
0.00283368
0.0029898
0.00314635
0.00330302
0.00345954
0.00361561
0.00377091
0.00392513
0.00407797
0.0042291
0.00437819
0.00452493
0.00466899
0.00481004
0.00494776
0.00508185
0.00521197
0.00533783
0.00545912
0.00557556
0.00568687
0.00579277
0.005893
0.00598734
0.00607555
0.00615742
0.00623277
0.00630141
0.00636321
0.00641804
0.00646578
0.00650636
0.00653972
0.00656582
0.00658466
0.00659626
0.00660067
0.00659794
0.00658819
0.00657154
0.00654814
0.00651817
0.00648184
0.00643936
0.00639101
0.00633705
0.00627778
0.00621354
0.00614465
0.0060715
0.00599446
0.00591392
0.00583031
0.00574406
0.0056556
0.00556538
0.00547388
0.00538156
0.00528889
0.00519636
0.00510443
0.0050136
0.00492435
0.00483714
0.00475246
0.00467075
0.00459249
0.0045181
0.00444802
0.00438268
0.00432249
0.00426782
0.00421909
0.00417664
0.00414086
0.00411212
0.00409069
0.00407691
0.00407208
0.00407701
0.000824793
0.000759503
0.000699328
0.000640436
0.000578939
0.000515338
0.000450169
0.000383682
0.00031614
0.000247839
0.000179081
0.000110167
4.13952e-05
-2.69414e-05
-9.45586e-05
-0.000161183
-0.000226552
-0.000290419
-0.000352549
-0.000412723
-0.000470736
-0.000526399
-0.000579537
-0.000629988
-0.000677605
-0.000722252
-0.000763807
-0.000802157
-0.000837201
-0.000868846
-0.000897009
-0.000921614
-0.000942593
-0.000959882
-0.000973424
-0.000983169
-0.000989069
-0.00099108
-0.000989162
-0.00098328
-0.000973399
-0.000959487
-0.000941517
-0.000919463
-0.000893299
-0.000863005
-0.000828562
-0.000789952
-0.000747161
-0.000700177
-0.000648994
-0.000593604
-0.000534008
-0.000470207
-0.000402208
-0.000330022
-0.000253667
-0.000173164
-8.85409e-05
1.67502e-07
9.29203e-05
0.000189669
0.000290358
0.000394922
0.000503289
0.000615378
0.000731097
0.000850347
0.000973015
0.00109898
0.00122812
0.00136028
0.00149531
0.00163305
0.00177332
0.00191594
0.0020607
0.00220741
0.00235583
0.00250575
0.00265691
0.00280906
0.00296196
0.00311531
0.00326885
0.00342229
0.00357533
0.00372768
0.00387902
0.00402904
0.00417743
0.00432387
0.00446804
0.00460961
0.00474827
0.0048837
0.00501558
0.0051436
0.00526745
0.00538684
0.00550148
0.00561109
0.0057154
0.00581416
0.00590711
0.00599405
0.00607476
0.00614905
0.00621675
0.0062777
0.00633179
0.00637889
0.00641894
0.00645187
0.00647764
0.00649625
0.00650771
0.00651207
0.00650939
0.00649978
0.00648335
0.00646025
0.00643066
0.00639478
0.00635284
0.00630507
0.00625176
0.00619321
0.00612972
0.00606164
0.00598932
0.00591314
0.00583349
0.00575077
0.0056654
0.00557782
0.00548847
0.00539778
0.00530623
0.00521428
0.00512237
0.00503099
0.00494059
0.00485164
0.00476458
0.00467989
0.00459799
0.00451933
0.00444432
0.00437339
0.00430693
0.00424533
0.00418896
0.0041382
0.00409339
0.00405488
0.00402299
0.00399802
0.00398028
0.00397056
0.00396921
0.000941754
0.000865819
0.000797309
0.000731668
0.000664187
0.000595356
0.00052571
0.000455436
0.000384738
0.000313859
0.000243047
0.000172552
0.000102623
3.35068e-05
-3.45582e-05
-0.00010134
-0.000166618
-0.000230181
-0.000291829
-0.000351377
-0.00040865
-0.000463487
-0.000515737
-0.000565263
-0.000611938
-0.000655648
-0.000696286
-0.000733756
-0.000767972
-0.000798853
-0.000826328
-0.000850329
-0.000870799
-0.000887681
-0.000900925
-0.000910486
-0.00091632
-0.000918388
-0.000916654
-0.000911083
-0.000901643
-0.000888304
-0.000871038
-0.000849818
-0.000824622
-0.000795424
-0.000762206
-0.000724948
-0.000683635
-0.000638251
-0.000588787
-0.000535233
-0.000477586
-0.000415844
-0.000350009
-0.00028009
-0.000206098
-0.000128051
-4.5972e-05
4.01089e-05
0.000130156
0.000224126
0.000321968
0.000423624
0.000529026
0.000638099
0.000750757
0.000866906
0.000986441
0.00110925
0.0012352
0.00136416
0.00149598
0.00163051
0.00176757
0.00190699
0.00204857
0.00219211
0.00233739
0.00248419
0.00263228
0.0027814
0.00293131
0.00308173
0.00323239
0.00338301
0.0035333
0.00368297
0.00383169
0.00397918
0.00412511
0.00426918
0.00441106
0.00455043
0.00468697
0.00482038
0.00495033
0.00507651
0.00519863
0.00531638
0.00542947
0.00553763
0.00564058
0.00573808
0.00582988
0.00591575
0.00599549
0.0060689
0.00613581
0.00619607
0.00624955
0.00629614
0.00633575
0.00636833
0.00639383
0.00641225
0.00642359
0.00642791
0.00642527
0.00641575
0.00639949
0.00637661
0.00634731
0.00631176
0.0062702
0.00622287
0.00617003
0.00611198
0.00604903
0.0059815
0.00590976
0.00583416
0.00575509
0.00567295
0.00558815
0.00550111
0.00541225
0.00532202
0.00523087
0.00513923
0.00504756
0.00495632
0.00486594
0.00477688
0.00468957
0.00460445
0.00452195
0.00444249
0.00436647
0.00429429
0.00422632
0.00416295
0.00410452
0.00405138
0.00400386
0.00396228
0.00392693
0.0038981
0.0038761
0.00386121
0.00385329
0.00106007
0.000973492
0.000896577
0.000824062
0.000750429
0.000676167
0.000601812
0.000527499
0.000453377
0.000379637
0.000306479
0.000234107
0.000162722
9.25265e-05
2.37171e-05
-4.35153e-05
-0.000108987
-0.000172525
-0.000233962
-0.000293145
-0.000349929
-0.000404179
-0.00045577
-0.00050459
-0.000550532
-0.0005935
-0.000633408
-0.000670175
-0.000703727
-0.000734
-0.000760932
-0.000784468
-0.000804556
-0.000821151
-0.000834209
-0.000843689
-0.000849555
-0.00085177
-0.000850302
-0.000845119
-0.00083619
-0.000823488
-0.000806984
-0.000786653
-0.000762469
-0.000734409
-0.000702452
-0.000666576
-0.000626763
-0.000582998
-0.000535265
-0.000483554
-0.000427856
-0.000368166
-0.000304484
-0.000236812
-0.000165158
-8.95345e-05
-9.96053e-06
7.35397e-05
0.000160936
0.000252189
0.000347255
0.00044608
0.000548604
0.000654755
0.000764455
0.000877615
0.000994137
0.00111391
0.00123682
0.00136273
0.0014915
0.00162298
0.00175701
0.00189341
0.00203199
0.00217256
0.00231491
0.00245882
0.00260405
0.00275037
0.00289753
0.00304526
0.00319329
0.00334135
0.00348914
0.00363638
0.00378277
0.00392799
0.00407174
0.0042137
0.00435356
0.00449101
0.00462571
0.00475737
0.00488566
0.00501028
0.00513091
0.00524727
0.00535907
0.00546602
0.00556786
0.00566432
0.00575517
0.00584019
0.00591914
0.00599186
0.00605815
0.00611787
0.00617088
0.00621707
0.00625636
0.00628867
0.00631398