/*--------------------------------*- C++ -*----------------------------------*\
| =========                 |                                                 |
| \\      /  F ield         | OpenFOAM: The Open Source CFD Toolbox           |
|  \\    /   O peration     | Version:  2.1.1                                 |
|   \\  /    A nd           | Web:      www.OpenFOAM.org                      |
|    \\/     M anipulation  |                                                 |
\*---------------------------------------------------------------------------*/
FoamFile
{
    version     2.0;
    format      ascii;
    class       surfaceScalarField;
    location    "0.4";
    object      phi;
}
// * * * * * * * * * * * * * * * * * * * * * * * * * * * * * * * * * * * * * //

dimensions      [0 3 -1 0 0 0 0];

internalField   nonuniform List<scalar> 
51520
(
2.02401e-12
-2.02399e-12
1.03966e-11
-8.37258e-12
2.23081e-11
-1.19115e-11
3.49757e-11
-1.26676e-11
4.64786e-11
-1.15029e-11
5.55278e-11
-9.04915e-12
6.12742e-11
-5.74642e-12
6.3179e-11
-1.90481e-12
6.09191e-11
2.25989e-12
5.43221e-11
6.59698e-12
4.33227e-11
1.09994e-11
2.79325e-11
1.53902e-11
8.21908e-12
1.97135e-11
-1.57095e-11
2.39286e-11
-4.37157e-11
2.80062e-11
-7.56411e-11
3.19254e-11
-1.11313e-10
3.56716e-11
-1.50548e-10
3.9235e-11
-1.93158e-10
4.26099e-11
-2.38951e-10
4.57933e-11
-2.87736e-10
4.87846e-11
-3.39321e-10
5.1585e-11
-3.93518e-10
5.4197e-11
-4.50142e-10
5.66243e-11
-5.09013e-10
5.88712e-11
-5.69956e-10
6.09427e-11
-6.328e-10
6.28442e-11
-6.97381e-10
6.45813e-11
-7.63541e-10
6.61597e-11
-8.31126e-10
6.75851e-11
-8.99989e-10
6.88632e-11
-9.69989e-10
6.99996e-11
-1.04099e-09
7.09995e-11
-1.11286e-09
7.18681e-11
-1.18547e-09
7.26102e-11
-1.2587e-09
7.32304e-11
-1.33243e-09
7.37329e-11
-1.40655e-09
7.41215e-11
-1.48095e-09
7.43998e-11
-1.55552e-09
7.45709e-11
-1.63016e-09
7.46378e-11
-1.70476e-09
7.46028e-11
-1.77923e-09
7.44683e-11
-1.85347e-09
7.4236e-11
-1.92737e-09
7.39075e-11
-2.00086e-09
7.3484e-11
-2.07383e-09
7.29665e-11
-2.14618e-09
7.23558e-11
-2.21783e-09
7.16524e-11
-2.28869e-09
7.08565e-11
-2.35866e-09
6.99683e-11
-2.42765e-09
6.89878e-11
-2.49556e-09
6.79148e-11
-2.56231e-09
6.6749e-11
-2.6278e-09
6.54901e-11
-2.69194e-09
6.41378e-11
-2.75463e-09
6.26915e-11
-2.81578e-09
6.1151e-11
-2.8753e-09
5.95158e-11
-2.93308e-09
5.77857e-11
-2.98904e-09
5.59604e-11
-3.04308e-09
5.40399e-11
-3.09511e-09
5.20241e-11
-3.14502e-09
4.99132e-11
-3.19273e-09
4.77077e-11
-3.23814e-09
4.54081e-11
-3.28115e-09
4.30153e-11
-3.32168e-09
4.05302e-11
-3.35963e-09
3.79542e-11
-3.39492e-09
3.52889e-11
-3.42746e-09
3.25363e-11
-3.45716e-09
2.96985e-11
-3.48394e-09
2.67782e-11
-3.50771e-09
2.37782e-11
-3.52842e-09
2.07017e-11
-3.54597e-09
1.75525e-11
-3.5603e-09
1.43344e-11
-3.57136e-09
1.10518e-11
-3.57906e-09
7.70946e-12
-3.58338e-09
4.31248e-12
-3.58424e-09
8.66311e-13
-3.58162e-09
-2.62319e-12
-3.57547e-09
-6.14983e-12
-3.56576e-09
-9.70705e-12
-3.55248e-09
-1.32879e-11
-3.53559e-09
-1.68852e-11
-3.5151e-09
-2.04914e-11
-3.491e-09
-2.40986e-11
-3.4633e-09
-2.76986e-11
-3.43202e-09
-3.12831e-11
-3.39718e-09
-3.48434e-11
-3.3588e-09
-3.83706e-11
-3.31695e-09
-4.18558e-11
-3.27166e-09
-4.52898e-11
-3.223e-09
-4.86632e-11
-3.17103e-09
-5.19666e-11
-3.11584e-09
-5.51907e-11
-3.05751e-09
-5.83259e-11
-2.99615e-09
-6.13628e-11
-2.93186e-09
-6.42921e-11
-2.86475e-09
-6.71044e-11
-2.79496e-09
-6.97906e-11
-2.72262e-09
-7.23418e-11
-2.64787e-09
-7.47493e-11
-2.57087e-09
-7.70046e-11
-2.49177e-09
-7.90996e-11
-2.41074e-09
-8.10265e-11
-2.32796e-09
-8.27778e-11
-2.24362e-09
-8.43467e-11
-2.15789e-09
-8.57265e-11
-2.07098e-09
-8.69114e-11
-1.98308e-09
-8.78957e-11
-1.89441e-09
-8.86748e-11
-1.80516e-09
-8.92441e-11
-1.71556e-09
-8.96002e-11
-1.62582e-09
-8.97399e-11
-1.53616e-09
-8.96611e-11
-1.4468e-09
-8.93619e-11
-1.35796e-09
-8.88416e-11
-1.26986e-09
-8.80999e-11
-1.18272e-09
-8.71374e-11
-1.09677e-09
-8.59554e-11
-1.01221e-09
-8.4556e-11
-9.29268e-10
-8.29421e-11
-8.48151e-10
-8.11171e-11
-7.69065e-10
-7.90855e-11
-6.92213e-10
-7.68523e-11
-6.1779e-10
-7.44234e-11
-5.45984e-10
-7.18055e-11
-4.76978e-10
-6.90058e-11
-4.10946e-10
-6.60325e-11
-3.48051e-10
-6.28944e-11
-2.8845e-10
-5.96011e-11
-2.32287e-10
-5.6163e-11
-1.79696e-10
-5.25911e-11
-1.30799e-10
-4.88973e-11
-8.57044e-11
-4.50945e-11
-4.45082e-11
-4.11962e-11
-7.29118e-12
-3.7217e-11
2.58815e-11
-3.31727e-11
5.49616e-11
-2.90801e-11
7.99191e-11
-2.49575e-11
1.00744e-10
-2.08247e-11
1.17447e-10
-1.67036e-11
1.30066e-10
-1.26183e-11
1.38662e-10
-8.59586e-12
1.43328e-10
-4.66675e-12
1.44194e-10
-8.65985e-13
1.41428e-10
2.76586e-12
1.35248e-10
6.1808e-12
1.25926e-10
9.32149e-12
1.13808e-10
1.2118e-11
9.93243e-11
1.44838e-11
8.30145e-11
1.63098e-11
6.55579e-11
1.74565e-11
4.78139e-11
1.7744e-11
3.08691e-11
1.69448e-11
1.60768e-11
1.47923e-11
5.07233e-12
1.10045e-11
-3.80622e-13
5.45296e-12
-3.80621e-13
8.37571e-12
-1.03997e-11
2.7302e-11
-2.72988e-11
5.14393e-11
-3.60488e-11
7.60194e-11
-3.72477e-11
9.71663e-11
-3.26498e-11
1.11948e-10
-2.38308e-11
1.18243e-10
-1.20416e-11
1.14578e-10
1.76007e-12
9.99809e-11
1.68572e-11
7.3861e-11
3.27169e-11
3.59186e-11
4.89418e-11
-1.39262e-11
6.5235e-11
-7.55868e-11
8.13741e-11
-1.48851e-10
9.71926e-11
-2.33411e-10
1.12567e-10
-3.28891e-10
1.27405e-10
-4.34861e-10
1.41641e-10
-5.50855e-10
1.55229e-10
-6.76384e-10
1.68139e-10
-8.1094e-10
1.8035e-10
-9.54011e-10
1.91855e-10
-1.10508e-09
2.02653e-10
-1.26363e-09
2.12747e-10
-1.42915e-09
2.22148e-10
-1.60115e-09
2.30867e-10
-1.77913e-09
2.38921e-10
-1.96261e-09
2.46328e-10
-2.15113e-09
2.53105e-10
-2.34425e-09
2.59272e-10
-2.54151e-09
2.64849e-10
-2.7425e-09
2.69857e-10
-2.94682e-09
2.74314e-10
-3.15406e-09
2.7824e-10
-3.36384e-09
2.81654e-10
-3.57581e-09
2.84572e-10
-3.78959e-09
2.87012e-10
-4.00484e-09
2.88989e-10
-4.22124e-09
2.90517e-10
-4.43845e-09
2.91609e-10
-4.65615e-09
2.92278e-10
-4.87405e-09
2.92534e-10
-5.09183e-09
2.92386e-10
-5.30921e-09
2.91843e-10
-5.52588e-09
2.90912e-10
-5.74158e-09
2.89599e-10
-5.956e-09
2.87909e-10
-6.16888e-09
2.85845e-10
-6.37994e-09
2.83412e-10
-6.58889e-09
2.80611e-10
-6.79548e-09
2.77443e-10
-6.99942e-09
2.7391e-10
-7.20045e-09
2.70012e-10
-7.39828e-09
2.65748e-10
-7.59265e-09
2.61118e-10
-7.78328e-09
2.56122e-10
-7.9699e-09
2.50758e-10
-8.15223e-09
2.45025e-10
-8.33e-09
2.38922e-10
-8.50294e-09
2.32449e-10
-8.67076e-09
2.25604e-10
-8.83318e-09
2.18389e-10
-8.98995e-09
2.10801e-10
-9.14077e-09
2.02844e-10
-9.28537e-09
1.94517e-10
-9.42348e-09
1.85822e-10
-9.55484e-09
1.76764e-10
-9.67917e-09
1.67345e-10
-9.79621e-09
1.57569e-10
-9.9057e-09
1.47444e-10
-1.00074e-08
1.36975e-10
-1.0101e-08
1.2617e-10
-1.01864e-08
1.15039e-10
-1.02632e-08
1.03591e-10
-1.03312e-08
9.18394e-11
-1.03903e-08
7.97961e-11
-1.04402e-08
6.74758e-11
-1.04808e-08
5.48942e-11
-1.05118e-08
4.20684e-11
-1.05331e-08
2.90172e-11
-1.05446e-08
1.57604e-11
-1.0546e-08
2.31945e-12
-1.05374e-08
-1.12828e-11
-1.05185e-08
-2.50222e-11
-1.04893e-08
-3.88732e-11
-1.04498e-08
-5.28091e-11
-1.03999e-08
-6.68019e-11
-1.03396e-08
-8.08222e-11
-1.02688e-08
-9.48397e-11
-1.01877e-08
-1.08823e-10
-1.00962e-08
-1.2274e-10
-9.99453e-09
-1.36557e-10
-9.88266e-09
-1.5024e-10
-9.76076e-09
-1.63755e-10
-9.62899e-09
-1.77066e-10
-9.48751e-09
-1.90138e-10
-9.33654e-09
-2.02934e-10
-9.17632e-09
-2.15419e-10
-9.00709e-09
-2.27556e-10
-8.82914e-09
-2.3931e-10
-8.64279e-09
-2.50644e-10
-8.44837e-09
-2.61524e-10
-8.24624e-09
-2.71914e-10
-8.03681e-09
-2.8178e-10
-7.82047e-09
-2.91089e-10
-7.59766e-09
-2.99809e-10
-7.36885e-09
-3.07909e-10
-7.13452e-09
-3.15359e-10
-6.89517e-09
-3.22132e-10
-6.65131e-09
-3.28201e-10
-6.4035e-09
-3.3354e-10
-6.15228e-09
-3.38128e-10
-5.89823e-09
-3.41944e-10
-5.64194e-09
-3.44969e-10
-5.384e-09
-3.47187e-10
-5.12501e-09
-3.48584e-10
-4.8656e-09
-3.49149e-10
-4.60639e-09
-3.48873e-10
-4.348e-09
-3.47751e-10
-4.09107e-09
-3.45778e-10
-3.83621e-09
-3.42955e-10
-3.58407e-09
-3.39284e-10
-3.33525e-09
-3.3477e-10
-3.09038e-09
-3.29422e-10
-2.85008e-09
-3.2325e-10
-2.61493e-09
-3.16268e-10
-2.38552e-09
-3.08494e-10
-2.16242e-09
-2.99947e-10
-1.9462e-09
-2.9065e-10
-1.73737e-09
-2.80629e-10
-1.53647e-09
-2.69913e-10
-1.34397e-09
-2.58533e-10
-1.16034e-09
-2.46524e-10
-9.86017e-10
-2.33923e-10
-8.21409e-10
-2.20771e-10
-6.66889e-10
-2.07111e-10
-5.22796e-10
-1.92991e-10
-3.8943e-10
-1.7846e-10
-2.67054e-10
-1.63572e-10
-1.55885e-10
-1.48386e-10
-5.60957e-11
-1.32962e-10
3.21922e-11
-1.17368e-10
1.08911e-10
-1.01676e-10
1.74051e-10
-8.59646e-11
2.27667e-10
-7.03202e-11
2.69887e-10
-5.4838e-11
3.00915e-10
-3.9624e-11
3.21046e-10
-2.47975e-11
3.30674e-10
-1.04942e-11
3.3031e-10
3.1298e-12
3.20598e-10
1.58932e-11
3.02337e-10
2.75824e-11
2.76511e-10
3.79435e-11
2.44324e-10
4.66712e-11
2.07237e-10
5.33967e-11
1.6702e-10
5.76734e-11
1.25798e-10
5.89663e-11
8.60819e-11
5.66609e-11
5.07507e-11
5.01235e-11
2.29075e-11
3.88477e-11
5.44237e-12
2.29181e-11
5.06175e-12
1.1939e-11
-2.23387e-11
3.61205e-11
-5.14804e-11
6.49725e-11
-6.49008e-11
9.24986e-11
-6.47737e-11
1.13782e-10
-5.39333e-11
1.24947e-10
-3.49958e-11
1.23055e-10
-1.01497e-11
1.05964e-10
1.88515e-11
7.21846e-11
5.06364e-11
2.07573e-11
8.41441e-11
-4.88584e-11
1.18557e-10
-1.36872e-10
1.53249e-10
-2.43234e-10
1.87736e-10
-3.67692e-10
2.21651e-10
-5.0984e-10
2.54714e-10
-6.6915e-10
2.86715e-10
-8.45005e-10
3.17497e-10
-1.03672e-09
3.46947e-10
-1.24357e-09
3.74987e-10
-1.46479e-09
4.01566e-10
-1.69959e-09
4.26655e-10
-1.94717e-09
4.50242e-10
-2.20676e-09
4.7233e-10
-2.47754e-09
4.92931e-10
-2.75874e-09
5.12068e-10
-3.04959e-09
5.29768e-10
-3.34932e-09
5.46065e-10
-3.65722e-09
5.60995e-10
-3.97254e-09
5.74596e-10
-4.2946e-09
5.86908e-10
-4.62271e-09
5.97972e-10
-4.95623e-09
6.07827e-10
-5.2945e-09
6.16514e-10
-5.63692e-09
6.2407e-10
-5.98288e-09
6.30532e-10
-6.3318e-09
6.35934e-10
-6.68312e-09
6.4031e-10
-7.03629e-09
6.43688e-10
-7.39078e-09
6.46098e-10
-7.74607e-09
6.47564e-10
-8.10164e-09
6.4811e-10
-8.45701e-09
6.47755e-10
-8.81169e-09
6.46518e-10
-9.16519e-09
6.44414e-10
-9.51705e-09
6.41456e-10
-9.86679e-09
6.37656e-10
-1.0214e-08
6.33021e-10
-1.05581e-08
6.2756e-10
-1.08988e-08
6.21278e-10
-1.12355e-08
6.14178e-10
-1.15679e-08
6.06262e-10
-1.18954e-08
5.97533e-10
-1.22176e-08
5.8799e-10
-1.25341e-08
5.77633e-10
-1.28445e-08
5.6646e-10
-1.31482e-08
5.54471e-10
-1.34448e-08
5.41665e-10
-1.3734e-08
5.28039e-10
-1.40151e-08
5.13593e-10
-1.42878e-08
4.98326e-10
-1.45517e-08
4.82239e-10
-1.48062e-08
4.65334e-10
-1.5051e-08
4.47612e-10
-1.52855e-08
4.29078e-10
-1.55095e-08
4.09737e-10
-1.57223e-08
3.89596e-10
-1.59236e-08
3.68664e-10
-1.6113e-08
3.46953e-10
-1.629e-08
3.24475e-10
-1.64543e-08
3.01247e-10
-1.66054e-08
2.77287e-10
-1.6743e-08
2.52615e-10
-1.68666e-08
2.27256e-10
-1.6976e-08
2.01235e-10
-1.70708e-08
1.74581e-10
-1.71507e-08
1.47328e-10
-1.72153e-08
1.1951e-10
-1.72644e-08
9.11646e-11
-1.72977e-08
6.23342e-11
-1.7315e-08
3.30628e-11
-1.73161e-08
3.39763e-12
-1.73008e-08
-2.6611e-11
-1.72689e-08
-5.69097e-11
-1.72203e-08
-8.74425e-11
-1.7155e-08
-1.1815e-10
-1.70728e-08
-1.48972e-10
-1.69738e-08
-1.79843e-10
-1.68579e-08
-2.10697e-10
-1.67253e-08
-2.41466e-10
-1.65759e-08
-2.72078e-10
-1.641e-08
-3.02461e-10
-1.62277e-08
-3.32541e-10
-1.60292e-08
-3.62243e-10
-1.58148e-08
-3.91488e-10
-1.55848e-08
-4.20201e-10
-1.53394e-08
-4.48302e-10
-1.50791e-08
-4.75713e-10
-1.48043e-08
-5.02356e-10
-1.45155e-08
-5.28151e-10
-1.42131e-08
-5.53022e-10
-1.38977e-08
-5.76892e-10
-1.35699e-08
-5.99685e-10
-1.32304e-08
-6.21327e-10
-1.28797e-08
-6.41747e-10
-1.25187e-08
-6.60874e-10
-1.21479e-08
-6.78642e-10
-1.17683e-08
-6.94987e-10
-1.13806e-08
-7.09847e-10
-1.09856e-08
-7.23167e-10
-1.05843e-08
-7.34891e-10
-1.01774e-08
-7.44972e-10
-9.76601e-09
-7.53364e-10
-9.35095e-09
-7.60028e-10
-8.93321e-09
-7.64929e-10
-8.51375e-09
-7.68038e-10
-8.09357e-09
-7.69329e-10
-7.67366e-09
-7.68785e-10
-7.25502e-09
-7.66393e-10
-6.83865e-09
-7.62146e-10
-6.42556e-09
-7.56043e-10
-6.01676e-09
-7.4809e-10
-5.61323e-09
-7.38299e-10
-5.21596e-09
-7.26688e-10
-4.82593e-09
-7.13281e-10
-4.44409e-09
-6.9811e-10
-4.07137e-09
-6.81212e-10
-3.70869e-09
-6.62631e-10
-3.35692e-09
-6.42417e-10
-3.01692e-09
-6.20627e-10
-2.68951e-09
-5.97325e-10
-2.37546e-09
-5.7258e-10
-2.07552e-09
-5.46468e-10
-1.79037e-09
-5.19073e-10
-1.52065e-09
-4.90483e-10
-1.26697e-09
-4.60796e-10
-1.02984e-09
-4.30116e-10
-8.09751e-10
-3.98552e-10
-6.07097e-10
-3.66226e-10
-4.22218e-10
-3.33265e-10
-2.55374e-10
-2.99806e-10
-1.06744e-10
-2.65998e-10
2.35812e-11
-2.32001e-10
1.35607e-10
-1.9799e-10
2.29441e-10
-1.64155e-10
3.0531e-10
-1.30706e-10
3.63562e-10
-9.78767e-11
4.04692e-10
-6.59268e-11
4.29348e-10
-3.51506e-11
4.38361e-10
-5.88307e-12
4.32763e-10
2.1491e-11
4.1382e-10
4.65254e-11
3.83064e-10
6.86994e-11
3.42333e-10
8.74022e-11
2.93813e-10
1.01917e-10
2.40077e-10
1.11409e-10
1.8412e-10
1.14923e-10
1.29359e-10
1.11423e-10
7.95791e-11
9.99031e-11
3.87923e-11
7.96345e-11
1.0971e-11
5.07394e-11
1.60327e-11
1.2742e-11
-3.50807e-11
3.74465e-11
-7.61849e-11
6.50572e-11
-9.25115e-11
8.8695e-11
-8.84116e-11
1.02814e-10
-6.80525e-11
1.02996e-10
-3.51782e-11
8.58149e-11
7.03188e-12
4.86973e-11
5.59691e-11
-1.02018e-11
1.09536e-10
-9.21206e-11
1.66063e-10
-1.97797e-10
2.24234e-10
-3.27563e-10
2.83014e-10
-4.8142e-10
3.41593e-10
-6.5911e-10
3.99341e-10
-8.60164e-10
4.55768e-10
-1.08395e-09
5.10503e-10
-1.32972e-09
5.63262e-10
-1.59661e-09
6.13836e-10
-1.8837e-09
6.62077e-10
-2.19001e-09
7.07882e-10
-2.51454e-09
7.51188e-10
-2.85627e-09
7.91963e-10
-3.21414e-09
8.302e-10
-3.58712e-09
8.65911e-10
-3.97417e-09
8.99124e-10
-4.37428e-09
9.29879e-10
-4.78644e-09
9.58226e-10
-5.20967e-09
9.8422e-10
-5.643e-09
1.00792e-09
-6.08548e-09
1.02939e-09
-6.53622e-09
1.0487e-09
-6.9943e-09
1.06592e-09
-7.45888e-09
1.08109e-09
-7.92911e-09
1.0943e-09
-8.40416e-09
1.10559e-09
-8.88326e-09
1.11503e-09
-9.36562e-09
1.12267e-09
-9.85049e-09
1.12856e-09
-1.03371e-08
1.13275e-09
-1.08248e-08
1.13527e-09
-1.13129e-08
1.13618e-09
-1.18007e-08
1.1355e-09
-1.22874e-08
1.13327e-09
-1.27725e-08
1.1295e-09
-1.32553e-08
1.12423e-09
-1.37351e-08
1.11747e-09
-1.42113e-08
1.10925e-09
-1.46833e-08
1.09956e-09
-1.51505e-08
1.08842e-09
-1.56121e-08
1.07584e-09
-1.60677e-08
1.06182e-09
-1.65165e-08
1.04638e-09
-1.6958e-08
1.02949e-09
-1.73916e-08
1.01118e-09
-1.78166e-08
9.91434e-10
-1.82323e-08
9.70255e-10
-1.86383e-08
9.47641e-10
-1.90339e-08
9.23592e-10
-1.94184e-08
8.98107e-10
-1.97912e-08
8.71187e-10
-2.01518e-08
8.42834e-10
-2.04996e-08
8.13053e-10
-2.08338e-08
7.81848e-10
-2.11539e-08
7.49228e-10
-2.14594e-08
7.15203e-10
-2.17496e-08
6.79789e-10
-2.20239e-08
6.43002e-10
-2.22818e-08
6.04862e-10
-2.25228e-08
5.65395e-10
-2.27462e-08
5.24629e-10
-2.29515e-08
4.82597e-10
-2.31382e-08
4.39337e-10
-2.33058e-08
3.94891e-10
-2.34539e-08
3.49305e-10
-2.35819e-08
3.02631e-10
-2.36895e-08
2.54928e-10
-2.37763e-08
2.06255e-10
-2.38418e-08
1.56682e-10
-2.38857e-08
1.0628e-10
-2.39078e-08
5.51268e-11
-2.39077e-08
3.30537e-12
-2.38852e-08
-4.90965e-11
-2.38402e-08
-1.01986e-10
-2.37723e-08
-1.55265e-10
-2.36817e-08
-2.08832e-10
-2.3568e-08
-2.62579e-10
-2.34315e-08
-3.16395e-10
-2.3272e-08
-3.70166e-10
-2.30897e-08
-4.23771e-10
-2.28847e-08
-4.77088e-10
-2.26572e-08
-5.29993e-10
-2.24074e-08
-5.82356e-10
-2.21356e-08
-6.34047e-10
-2.18421e-08
-6.84934e-10
-2.15274e-08
-7.34882e-10
-2.1192e-08
-7.83756e-10
-2.08363e-08
-8.31422e-10
-2.04609e-08
-8.77744e-10
-2.00664e-08
-9.22587e-10
-1.96537e-08
-9.65817e-10
-1.92232e-08
-1.0073e-09
-1.8776e-08
-1.04691e-09
-1.83128e-08
-1.08452e-09
-1.78346e-08
-1.12001e-09
-1.73422e-08
-1.15325e-09
-1.68367e-08
-1.18413e-09
-1.63191e-08
-1.21254e-09
-1.57906e-08
-1.23838e-09
-1.52522e-08
-1.26154e-09
-1.47052e-08
-1.28194e-09
-1.41507e-08
-1.2995e-09
-1.35899e-08
-1.31413e-09
-1.30242e-08
-1.32577e-09
-1.24547e-08
-1.33435e-09
-1.18829e-08
-1.33984e-09
-1.13101e-08
-1.34218e-09
-1.07375e-08
-1.34135e-09
-1.01666e-08
-1.33732e-09
-9.59866e-09
-1.33009e-09
-9.03506e-09
-1.31964e-09
-8.47715e-09
-1.306e-09
-7.92626e-09
-1.28919e-09
-7.38372e-09
-1.26922e-09
-6.85085e-09
-1.24616e-09
-6.32891e-09
-1.22005e-09
-5.81916e-09
-1.19096e-09
-5.32284e-09
-1.15896e-09
-4.84111e-09
-1.12414e-09
-4.37513e-09
-1.08661e-09
-3.92599e-09
-1.04646e-09
-3.49474e-09
-1.00383e-09
-3.08236e-09
-9.58852e-10
-2.68977e-09
-9.11661e-10
-2.31783e-09
-8.62419e-10
-1.96733e-09
-8.11294e-10
-1.63898e-09
-7.58467e-10
-1.3334e-09
-7.04134e-10
-1.05112e-09
-6.48502e-10
-7.92591e-10
-5.91798e-10
-5.58137e-10
-5.3426e-10
-3.47986e-10
-4.76149e-10
-1.62243e-10
-4.17745e-10
-8.81747e-13
-3.59351e-10
1.36264e-10
-3.013e-10
2.49513e-10
-2.43956e-10
3.39356e-10
-1.87719e-10
4.06467e-10
-1.33038e-10
4.51729e-10
-8.04122e-11
4.76253e-10
-3.04067e-11
4.81407e-10
1.63368e-11
4.68848e-10
5.90846e-11
4.40552e-10
9.69946e-11
3.98856e-10
1.29098e-10
3.46487e-10
1.54286e-10
2.86596e-10
1.71299e-10
2.22778e-10
1.78742e-10
1.59063e-10
1.75137e-10
9.98927e-11
1.59073e-10
5.00656e-11
1.29462e-10
1.47422e-11
8.60628e-11
3.07749e-11
1.16361e-11
-4.67168e-11
3.29972e-11
-9.75461e-11
5.44453e-11
-1.1396e-10
6.86269e-11
-1.02593e-10
6.9656e-11
-6.90816e-11
5.283e-11
-1.83521e-11
1.44584e-11
4.54035e-11
-4.8276e-11
1.18703e-10
-1.37437e-10
1.98696e-10
-2.54444e-10
2.8307e-10
-4.00174e-10
3.69964e-10
-5.75048e-10
4.57888e-10
-7.79114e-10
5.45659e-10
-1.01211e-09
6.32338e-10
-1.27353e-09
7.17189e-10
-1.56267e-09
7.9964e-10
-1.87866e-09
8.79251e-10
-2.22051e-09
9.55691e-10
-2.58715e-09
1.02872e-09
-2.97743e-09
1.09816e-09
-3.39015e-09
1.1639e-09
-3.82407e-09
1.22589e-09
-4.27795e-09
1.28408e-09
-4.75054e-09
1.3385e-09
-5.24058e-09
1.38916e-09
-5.74683e-09
1.43613e-09
-6.26805e-09
1.47945e-09
-6.80305e-09
1.51922e-09
-7.35063e-09
1.5555e-09
-7.90963e-09
1.5884e-09
-8.47892e-09
1.61799e-09
-9.05739e-09
1.64439e-09
-9.64397e-09
1.66767e-09
-1.02376e-08
1.68793e-09
-1.08373e-08
1.70525e-09
-1.1442e-08
1.71972e-09
-1.20507e-08
1.73143e-09
-1.26626e-08
1.74043e-09
-1.32767e-08
1.74681e-09
-1.3892e-08
1.75062e-09
-1.45077e-08
1.75193e-09
-1.5123e-08
1.75078e-09
-1.5737e-08
1.74722e-09
-1.63488e-08
1.74129e-09
-1.69576e-08
1.73303e-09
-1.75625e-08
1.72246e-09
-1.81629e-08
1.70961e-09
-1.87578e-08
1.6945e-09
-1.93466e-08
1.67714e-09
-1.99283e-08
1.65755e-09
-2.05022e-08
1.63573e-09
-2.10675e-08
1.6117e-09
-2.16235e-08
1.58545e-09
-2.21693e-08
1.55699e-09
-2.27041e-08
1.52631e-09
-2.32273e-08
1.49342e-09
-2.3738e-08
1.45832e-09
-2.42354e-08
1.42101e-09
-2.47188e-08
1.38149e-09
-2.51874e-08
1.33976e-09
-2.56404e-08
1.29583e-09
-2.6077e-08
1.24971e-09
-2.64966e-08
1.2014e-09
-2.68983e-08
1.15093e-09
-2.72814e-08
1.0983e-09
-2.76451e-08
1.04355e-09
-2.79889e-08
9.86708e-10
-2.83118e-08
9.27796e-10
-2.86133e-08
8.66861e-10
-2.88926e-08
8.03947e-10
-2.91491e-08
7.39107e-10
-2.93821e-08
6.724e-10
-2.95911e-08
6.03893e-10
-2.97755e-08
5.33657e-10
-2.99346e-08
4.61776e-10
-3.0068e-08
3.88336e-10
-3.01752e-08
3.13434e-10
-3.02557e-08
2.37174e-10
-3.03091e-08
1.59667e-10
-3.0335e-08
8.10346e-11
-3.03331e-08
1.40253e-12
-3.03031e-08
-7.90939e-11
-3.02448e-08
-1.60312e-10
-3.0158e-08
-2.42103e-10
-3.00425e-08
-3.24308e-10
-2.98983e-08
-4.06766e-10
-2.97254e-08
-4.89306e-10
-2.95238e-08
-5.71752e-10
-2.92936e-08
-6.53923e-10
-2.90351e-08
-7.35632e-10
-2.87484e-08
-8.16689e-10
-2.84339e-08
-8.96897e-10
-2.80918e-08
-9.76058e-10
-2.77228e-08
-1.05397e-09
-2.73273e-08
-1.13043e-09
-2.69058e-08
-1.20524e-09
-2.6459e-08
-1.27818e-09
-2.59877e-08
-1.34906e-09
-2.54926e-08
-1.41767e-09
-2.49746e-08
-1.4838e-09
-2.44347e-08
-1.54726e-09
-2.38737e-08
-1.60785e-09
-2.32929e-08
-1.66537e-09
-2.26933e-08
-1.71965e-09
-2.2076e-08
-1.7705e-09
-2.14424e-08
-1.81774e-09
-2.07937e-08
-1.86122e-09
-2.01313e-08
-1.90076e-09
-1.94566e-08
-1.93624e-09
-1.87711e-08
-1.9675e-09
-1.80762e-08
-1.99441e-09
-1.73734e-08
-2.01688e-09
-1.66644e-08
-2.03478e-09
-1.59507e-08
-2.04804e-09
-1.5234e-08
-2.05657e-09
-1.45158e-08
-2.06032e-09
-1.37979e-08
-2.05924e-09
-1.3082e-08
-2.05329e-09
-1.23696e-08
-2.04247e-09
-1.16625e-08
-2.02676e-09
-1.09623e-08
-2.00619e-09
-1.02707e-08
-1.98078e-09
-9.58931e-09
-1.9506e-09
-8.91978e-09
-1.91569e-09
-8.26367e-09
-1.87616e-09
-7.62254e-09
-1.83209e-09
-6.99789e-09
-1.78361e-09
-6.39119e-09
-1.73084e-09
-5.80384e-09
-1.67395e-09
-5.23721e-09
-1.6131e-09
-4.69257e-09
-1.54847e-09
-4.17115e-09
-1.48028e-09
-3.67407e-09
-1.40874e-09
-3.20239e-09
-1.3341e-09
-2.75708e-09
-1.25661e-09
-2.33899e-09
-1.17655e-09
-1.94891e-09
-1.09422e-09
-1.58746e-09
-1.00995e-09
-1.25518e-09
-9.24072e-10
-9.52483e-10
-8.36962e-10
-6.79616e-10
-7.49016e-10
-4.36698e-10
-6.60662e-10
-2.23683e-10
-5.72367e-10
-4.03503e-11
-4.84633e-10
1.13708e-10
-3.98014e-10
2.39106e-10
-3.13117e-10
3.36678e-10
-2.30611e-10
4.07508e-10
-1.51242e-10
4.52946e-10
-7.58447e-11
4.74639e-10
-5.35609e-12
4.74559e-10
5.91652e-11
4.55032e-10
1.16521e-10
4.18773e-10
1.65357e-10
3.68912e-10
2.04148e-10
3.09017e-10
2.31194e-10
2.43113e-10
2.44645e-10
1.75691e-10
2.42559e-10
1.11725e-10
2.2304e-10
5.67201e-11
1.84466e-10
1.69082e-11
1.25875e-10
4.76831e-11
9.23781e-12
-5.59546e-11
2.42951e-11
-1.12603e-10
3.56423e-11
-1.25307e-10
3.5849e-11
-1.028e-10
1.89454e-11
-5.21781e-11
-1.98563e-11
2.04495e-11
-8.4341e-11
1.09888e-10
-1.77428e-10
2.1179e-10
-3.01282e-10
3.22551e-10
-4.57416e-10
4.39204e-10
-6.4678e-10
5.59328e-10
-8.69847e-10
6.80955e-10
-1.12668e-09
8.02497e-10
-1.41703e-09
9.2268e-10
-1.74033e-09
1.04049e-09
-2.09582e-09
1.15513e-09
-2.48255e-09
1.26598e-09
-2.89942e-09
1.37256e-09
-3.34521e-09
1.47451e-09
-3.81864e-09
1.57159e-09
-4.31835e-09
1.66361e-09
-4.84292e-09
1.75046e-09
-5.39094e-09
1.8321e-09
-5.96095e-09
1.90851e-09
-6.55152e-09
1.97973e-09
-7.16119e-09
2.0458e-09
-7.78855e-09
2.1068e-09
-8.43217e-09
2.16284e-09
-9.09067e-09
2.214e-09
-9.76268e-09
2.26041e-09
-1.04469e-08
2.30219e-09
-1.11419e-08
2.33946e-09
-1.18466e-08
2.37233e-09
-1.25596e-08
2.40094e-09
-1.32798e-08
2.4254e-09
-1.40059e-08
2.44582e-09
-1.47368e-08
2.46231e-09
-1.54713e-08
2.47497e-09
-1.62084e-08
2.4839e-09
-1.69469e-08
2.48917e-09
-1.76859e-08
2.49087e-09
-1.84242e-08
2.48907e-09
-1.91608e-08
2.48384e-09
-1.98947e-08
2.47522e-09
-2.0625e-08
2.46327e-09
-2.13505e-08
2.44803e-09
-2.20705e-08
2.42953e-09
-2.27838e-08
2.4078e-09
-2.34895e-08
2.38286e-09
-2.41867e-08
2.35474e-09
-2.48744e-08
2.32345e-09
-2.55517e-08
2.28899e-09
-2.62176e-08
2.25137e-09
-2.68712e-08
2.2106e-09
-2.75116e-08
2.16668e-09
-2.81378e-08
2.11962e-09
-2.87489e-08
2.06941e-09
-2.93439e-08
2.01606e-09
-2.9922e-08
1.95957e-09
-3.04822e-08
1.89996e-09
-3.10236e-08
1.83722e-09
-3.15453e-08
1.77138e-09
-3.20463e-08
1.70246e-09
-3.25259e-08
1.63047e-09
-3.2983e-08
1.55544e-09
-3.34169e-08
1.47742e-09
-3.38266e-08
1.39644e-09
-3.42114e-08
1.31256e-09
-3.45703e-08
1.22583e-09
-3.49027e-08
1.13632e-09
-3.52077e-08
1.04411e-09
-3.54846e-08
9.4928e-10
-3.57326e-08
8.51928e-10
-3.59511e-08
7.52159e-10
-3.61394e-08
6.50089e-10
-3.6297e-08
5.45845e-10
-3.64231e-08
4.39564e-10
-3.65173e-08
3.31395e-10
-3.65791e-08
2.21497e-10
-3.66081e-08
1.10038e-10
-3.66039e-08
-2.79957e-12
-3.65662e-08
-1.16826e-10
-3.64947e-08
-2.31838e-10
-3.63892e-08
-3.47627e-10
-3.62495e-08
-4.63969e-10
-3.60756e-08
-5.80635e-10
-3.58675e-08
-6.97386e-10
-3.56253e-08
-8.13974e-10
-3.53491e-08
-9.30144e-10
-3.50391e-08
-1.04563e-09
-3.46956e-08
-1.16017e-09
-3.4319e-08
-1.27349e-09
-3.39098e-08
-1.38531e-09
-3.34684e-08
-1.49535e-09
-3.29955e-08
-1.60331e-09
-3.24918e-08
-1.70893e-09
-3.19581e-08
-1.8119e-09
-3.13952e-08
-1.91194e-09
-3.08041e-08
-2.00876e-09
-3.01858e-08
-2.10209e-09
-2.95414e-08
-2.19165e-09
-2.88721e-08
-2.27715e-09
-2.81792e-08
-2.35833e-09
-2.74639e-08
-2.43493e-09
-2.67277e-08
-2.50669e-09
-2.59721e-08
-2.57338e-09
-2.51985e-08
-2.63477e-09
-2.44087e-08
-2.69063e-09
-2.36042e-08
-2.74075e-09
-2.27867e-08
-2.78495e-09
-2.19581e-08
-2.82305e-09
-2.112e-08
-2.85489e-09
-2.02745e-08
-2.88032e-09
-1.94233e-08
-2.89923e-09
-1.85684e-08
-2.9115e-09
-1.77117e-08
-2.91705e-09
-1.68551e-08
-2.91581e-09
-1.60006e-08
-2.90775e-09
-1.51503e-08
-2.89283e-09
-1.4306e-08
-2.87107e-09
-1.34697e-08
-2.84248e-09
-1.26434e-08
-2.8071e-09
-1.18289e-08
-2.76502e-09
-1.10283e-08
-2.71633e-09
-1.02433e-08
-2.66113e-09
-9.47583e-09
-2.59958e-09
-8.72759e-09
-2.53184e-09
-8.00033e-09
-2.4581e-09
-7.2957e-09
-2.37858e-09
-6.6153e-09
-2.2935e-09
-5.96063e-09
-2.20315e-09
-5.33311e-09
-2.1078e-09
-4.73408e-09
-2.00777e-09
-4.16478e-09
-1.9034e-09
-3.62632e-09
-1.79506e-09
-3.11973e-09
-1.68314e-09
-2.64589e-09
-1.56807e-09
-2.20554e-09
-1.45029e-09
-1.79932e-09
-1.3303e-09
-1.42767e-09
-1.20861e-09
-1.09089e-09
-1.08579e-09
-7.89112e-10
-9.62443e-10
-5.22263e-10
-8.39215e-10
-2.9008e-10
-7.16817e-10
-9.20782e-11
-5.96016e-10
7.24602e-11
-4.77655e-10
2.04508e-10
-3.62658e-10
3.05312e-10
-2.52047e-10
3.7642e-10
-1.46952e-10
4.19701e-10
-4.86366e-11
4.37373e-10
4.14925e-11
4.32034e-10
1.21861e-10
4.06681e-10
1.9071e-10
3.64742e-10
2.46087e-10
3.10093e-10
2.85844e-10
2.47083e-10
3.07655e-10
1.80563e-10
3.09079e-10
1.15948e-10
2.87655e-10
5.9334e-11
2.4108e-10
1.77726e-11
1.67436e-10
6.54557e-11
5.96972e-12
-6.19243e-11
1.2531e-11
-1.19165e-10
1.07124e-11
-1.23488e-10
-6.66729e-12
-8.54201e-11
-4.54369e-11
-1.34085e-11
-1.10301e-10
8.53134e-11
-2.05e-10
2.04587e-10
-3.32438e-10
3.39228e-10
-4.94783e-10
4.84896e-10
-6.93561e-10
6.37983e-10
-9.29736e-10
7.95502e-10
-1.20378e-09
9.55002e-10
-1.51577e-09
1.11448e-09
-1.86539e-09
1.27231e-09
-2.25208e-09
1.42718e-09
-2.67499e-09
1.57804e-09
-3.13309e-09
1.72408e-09
-3.6252e-09
1.86466e-09
-4.14998e-09
1.99929e-09
-4.70601e-09
2.12762e-09
-5.2918e-09
2.2494e-09
-5.90579e-09
2.36445e-09
-6.5464e-09
2.47271e-09
-7.21201e-09
2.57412e-09
-7.901e-09
2.66872e-09
-8.61176e-09
2.75656e-09
-9.34267e-09
2.83772e-09
-1.00921e-08
2.91231e-09
-1.08586e-08
2.98046e-09
-1.16405e-08
3.04231e-09
-1.24363e-08
3.098e-09
-1.32445e-08
3.1477e-09
-1.40638e-08
3.19154e-09
-1.48925e-08
3.22969e-09
-1.57294e-08
3.26229e-09
-1.6573e-08
3.28948e-09
-1.74221e-08
3.31141e-09
-1.82754e-08
3.32819e-09
-1.91314e-08
3.33996e-09
-1.99891e-08
3.34682e-09
-2.08471e-08
3.34887e-09
-2.17042e-08
3.3462e-09
-2.25593e-08
3.33891e-09
-2.34111e-08
3.32706e-09
-2.42585e-08
3.31071e-09
-2.51004e-08
3.28992e-09
-2.59356e-08
3.26474e-09
-2.6763e-08
3.2352e-09
-2.75815e-08
3.20134e-09
-2.839e-08
3.16318e-09
-2.91873e-08
3.12074e-09
-2.99723e-08
3.07404e-09
-3.0744e-08
3.02309e-09
-3.15013e-08
2.96789e-09
-3.22431e-08
2.90846e-09
-3.29683e-08
2.84479e-09
-3.36758e-08
2.77691e-09
-3.43645e-08
2.7048e-09
-3.50334e-08
2.62849e-09
-3.56815e-08
2.54798e-09
-3.63075e-08
2.4633e-09
-3.69106e-08
2.37446e-09
-3.74897e-08
2.2815e-09
-3.80436e-08
2.18444e-09
-3.85715e-08
2.08333e-09
-3.90723e-08
1.97822e-09
-3.9545e-08
1.86917e-09
-3.99887e-08
1.75626e-09
-4.04025e-08
1.63956e-09
-4.07853e-08
1.51916e-09
-4.11364e-08
1.39518e-09
-4.14548e-08
1.26772e-09
-4.17398e-08
1.13692e-09
-4.19906e-08
1.00292e-09
-4.22064e-08
8.65883e-10
-4.23865e-08
7.25974e-10
-4.25303e-08
5.8338e-10
-4.26372e-08
4.38301e-10
-4.27067e-08
2.9095e-10
-4.27382e-08
1.41555e-10
-4.27313e-08
-9.64216e-12
-4.26858e-08
-1.62385e-10
-4.26012e-08
-3.16406e-10
-4.24774e-08
-4.71421e-10
-4.23142e-08
-6.27135e-10
-4.21116e-08
-7.83242e-10
-4.18696e-08
-9.39424e-10
-4.15882e-08
-1.09535e-09
-4.12677e-08
-1.25068e-09
-4.09083e-08
-1.40507e-09
-4.05103e-08
-1.55816e-09
-4.00742e-08
-1.70959e-09
-3.96005e-08
-1.85898e-09
-3.90899e-08
-2.00597e-09
-3.8543e-08
-2.15017e-09
-3.79607e-08
-2.29122e-09
-3.73439e-08
-2.42871e-09
-3.66936e-08
-2.56229e-09
-3.60108e-08
-2.69156e-09
-3.52967e-08
-2.81616e-09
-3.45526e-08
-2.93571e-09
-3.37799e-08
-3.04985e-09
-3.298e-08
-3.15824e-09
-3.21544e-08
-3.26051e-09
-3.13048e-08
-3.35635e-09
-3.04327e-08
-3.44543e-09
-2.95401e-08
-3.52744e-09
-2.86286e-08
-3.6021e-09
-2.77002e-08
-3.66913e-09
-2.67569e-08
-3.72828e-09
-2.58006e-08
-3.77932e-09
-2.48335e-08
-3.82204e-09
-2.38576e-08
-3.85624e-09
-2.2875e-08
-3.88177e-09
-2.1888e-08
-3.89848e-09
-2.08988e-08
-3.90627e-09
-1.99096e-08
-3.90504e-09
-1.89226e-08
-3.89475e-09
-1.794e-08
-3.87536e-09
-1.69642e-08
-3.84688e-09
-1.59974e-08
-3.80934e-09
-1.50417e-08
-3.76279e-09
-1.40994e-08
-3.70734e-09
-1.31726e-08
-3.64311e-09
-1.22634e-08
-3.57026e-09
-1.1374e-08
-3.48898e-09
-1.05064e-08
-3.39948e-09
-9.66249e-09
-3.30203e-09
-8.84416e-09
-3.1969e-09
-8.05323e-09
-3.08443e-09
-7.29143e-09
-2.96495e-09
-6.56037e-09
-2.83886e-09
-5.86156e-09
-2.70658e-09
-5.19641e-09
-2.56855e-09
-4.5662e-09
-2.42528e-09
-3.97206e-09
-2.27728e-09
-3.41501e-09
-2.12512e-09
-2.89589e-09
-1.96941e-09
-2.4154e-09
-1.81079e-09
-1.97406e-09
-1.64996e-09
-1.57219e-09
-1.48766e-09
-1.20993e-09
-1.3247e-09
-8.87204e-10
-1.16194e-09
-6.03712e-10
-1.00031e-09
-3.58909e-10
-8.40819e-10
-1.51992e-10
-6.84573e-10
1.81216e-11
-5.32772e-10
1.52811e-10
-3.86736e-10
2.53776e-10
-2.47917e-10
3.23059e-10
-1.17919e-10
3.63067e-10
1.48365e-12
3.766e-10
1.08328e-10
3.66866e-10
2.00444e-10
3.37512e-10
2.75441e-10
2.92643e-10
3.30712e-10
2.36856e-10
3.63443e-10
1.75284e-10
3.7065e-10
1.13687e-10
3.49252e-10
5.86016e-11
2.96165e-10
1.76201e-11
2.08418e-10
8.30757e-11
2.1242e-12
-6.40485e-11
-1.3994e-12
-1.15641e-10
-1.87184e-11
-1.06169e-10
-5.65252e-11
-4.76134e-11
-1.20323e-10
5.03888e-11
-2.14587e-10
1.79578e-10
-3.42899e-10
3.32899e-10
-5.08046e-10
5.04375e-10
-7.12116e-10
6.88966e-10
-9.56575e-10
8.82442e-10
-1.24234e-09
1.08127e-09
-1.56986e-09
1.28252e-09
-1.93914e-09
1.48376e-09
-2.34986e-09
1.68302e-09
-2.80136e-09
1.87868e-09
-3.29276e-09
2.06944e-09
-3.82294e-09
2.25426e-09
-4.39062e-09
2.43234e-09
-4.99437e-09
2.60304e-09
-5.63265e-09
2.76591e-09
-6.30385e-09
2.92059e-09
-7.00628e-09
3.06688e-09
-7.7382e-09
3.20463e-09
-8.49786e-09
3.33378e-09
-9.28348e-09
3.45435e-09
-1.00933e-08
3.56637e-09
-1.09255e-08
3.66994e-09
-1.17784e-08
3.76518e-09
-1.26502e-08
3.85224e-09
-1.35392e-08
3.93129e-09
-1.44436e-08
4.00249e-09
-1.5362e-08
4.06602e-09
-1.62925e-08
4.12207e-09
-1.72336e-08
4.17083e-09
-1.81838e-08
4.21247e-09
-1.91415e-08
4.24717e-09
-2.01052e-08
4.2751e-09
-2.10734e-08
4.29641e-09
-2.20447e-08