/*--------------------------------*- C++ -*----------------------------------*\
| =========                 |                                                 |
| \\      /  F ield         | OpenFOAM: The Open Source CFD Toolbox           |
|  \\    /   O peration     | Version:  2.1.1                                 |
|   \\  /    A nd           | Web:      www.OpenFOAM.org                      |
|    \\/     M anipulation  |                                                 |
\*---------------------------------------------------------------------------*/
FoamFile
{
    version     2.0;
    format      ascii;
    class       volVectorField;
    location    "0.4";
    object      U;
}
// * * * * * * * * * * * * * * * * * * * * * * * * * * * * * * * * * * * * * //

dimensions      [0 1 -1 0 0 0 0];

internalField   nonuniform List<vector> 
25921
(
(3.2592e-07 -3.25655e-07 0)
(3.44434e-06 -2.0508e-06 0)
(1.02602e-05 -3.08236e-06 0)
(1.84952e-05 -3.36388e-06 0)
(2.65e-05 -3.1525e-06 0)
(3.3269e-05 -2.63735e-06 0)
(3.81368e-05 -1.93926e-06 0)
(4.06683e-05 -1.13631e-06 0)
(4.05954e-05 -2.78415e-07 0)
(3.77655e-05 6.02392e-07 0)
(3.21072e-05 1.48503e-06 0)
(2.36071e-05 2.35534e-06 0)
(1.22932e-05 3.20365e-06 0)
(-1.77588e-06 4.02338e-06 0)
(-1.85195e-05 4.81006e-06 0)
(-3.78412e-05 5.56075e-06 0)
(-5.96333e-05 6.27363e-06 0)
(-8.37806e-05 6.94772e-06 0)
(-0.000110163 7.58264e-06 0)
(-0.000138658 8.17849e-06 0)
(-0.000169141 8.73575e-06 0)
(-0.000201489 9.25513e-06 0)
(-0.000235579 9.73757e-06 0)
(-0.000271291 1.01841e-05 0)
(-0.000308508 1.0596e-05 0)
(-0.000347115 1.09744e-05 0)
(-0.000387 1.13206e-05 0)
(-0.000428057 1.16359e-05 0)
(-0.00047018 1.19216e-05 0)
(-0.000513269 1.21789e-05 0)
(-0.000557228 1.24091e-05 0)
(-0.000601964 1.26133e-05 0)
(-0.000647386 1.27926e-05 0)
(-0.00069341 1.29481e-05 0)
(-0.000739952 1.30808e-05 0)
(-0.000786932 1.31916e-05 0)
(-0.000834272 1.32813e-05 0)
(-0.000881899 1.33507e-05 0)
(-0.00092974 1.34006e-05 0)
(-0.000977726 1.34315e-05 0)
(-0.00102579 1.3444e-05 0)
(-0.00107386 1.34386e-05 0)
(-0.00112188 1.34156e-05 0)
(-0.00116977 1.33755e-05 0)
(-0.00121749 1.33184e-05 0)
(-0.00126497 1.32447e-05 0)
(-0.00131214 1.31545e-05 0)
(-0.00135895 1.30479e-05 0)
(-0.00140533 1.2925e-05 0)
(-0.00145124 1.27857e-05 0)
(-0.0014966 1.26302e-05 0)
(-0.00154135 1.24583e-05 0)
(-0.00158545 1.227e-05 0)
(-0.00162883 1.20653e-05 0)
(-0.00167142 1.18439e-05 0)
(-0.00171318 1.16058e-05 0)
(-0.00175403 1.13508e-05 0)
(-0.00179393 1.10789e-05 0)
(-0.0018328 1.07899e-05 0)
(-0.00187058 1.04838e-05 0)
(-0.00190722 1.01603e-05 0)
(-0.00194266 9.81957e-06 0)
(-0.00197683 9.46142e-06 0)
(-0.00200966 9.08587e-06 0)
(-0.00204111 8.69294e-06 0)
(-0.00207111 8.28269e-06 0)
(-0.0020996 7.85522e-06 0)
(-0.00212651 7.41067e-06 0)
(-0.0021518 6.94925e-06 0)
(-0.0021754 6.4712e-06 0)
(-0.00219725 5.97684e-06 0)
(-0.0022173 5.46653e-06 0)
(-0.0022355 4.94069e-06 0)
(-0.00225179 4.39984e-06 0)
(-0.00226613 3.84453e-06 0)
(-0.00227846 3.27539e-06 0)
(-0.00228873 2.69312e-06 0)
(-0.00229692 2.09851e-06 0)
(-0.00230297 1.49238e-06 0)
(-0.00230685 8.7567e-07 0)
(-0.00230852 2.49355e-07 0)
(-0.00230796 -3.85499e-07 0)
(-0.00230514 -1.02776e-06 0)
(-0.00230004 -1.67623e-06 0)
(-0.00229264 -2.32964e-06 0)
(-0.00228292 -2.98666e-06 0)
(-0.00227089 -3.64589e-06 0)
(-0.00225653 -4.30588e-06 0)
(-0.00223985 -4.96511e-06 0)
(-0.00222085 -5.62203e-06 0)
(-0.00219956 -6.27502e-06 0)
(-0.00217598 -6.92245e-06 0)
(-0.00215014 -7.5626e-06 0)
(-0.00212207 -8.19377e-06 0)
(-0.0020918 -8.81421e-06 0)
(-0.00205939 -9.42216e-06 0)
(-0.00202487 -1.00158e-05 0)
(-0.0019883 -1.05935e-05 0)
(-0.00194975 -1.11533e-05 0)
(-0.00190927 -1.16934e-05 0)
(-0.00186694 -1.22123e-05 0)
(-0.00182284 -1.2708e-05 0)
(-0.00177705 -1.3179e-05 0)
(-0.00172966 -1.36235e-05 0)
(-0.00168077 -1.404e-05 0)
(-0.00163048 -1.44269e-05 0)
(-0.0015789 -1.47827e-05 0)
(-0.00152612 -1.51061e-05 0)
(-0.00147228 -1.53956e-05 0)
(-0.00141749 -1.56501e-05 0)
(-0.00136187 -1.58684e-05 0)
(-0.00130555 -1.60494e-05 0)
(-0.00124866 -1.61923e-05 0)
(-0.00119134 -1.62961e-05 0)
(-0.00113371 -1.63602e-05 0)
(-0.00107593 -1.6384e-05 0)
(-0.00101813 -1.6367e-05 0)
(-0.000960451 -1.6309e-05 0)
(-0.000903035 -1.62097e-05 0)
(-0.000846025 -1.6069e-05 0)
(-0.000789565 -1.58871e-05 0)
(-0.000733795 -1.56642e-05 0)
(-0.000678856 -1.54006e-05 0)
(-0.000624889 -1.50969e-05 0)
(-0.000572029 -1.47537e-05 0)
(-0.000520412 -1.43717e-05 0)
(-0.000470169 -1.3952e-05 0)
(-0.000421429 -1.34956e-05 0)
(-0.000374314 -1.30037e-05 0)
(-0.000328945 -1.24776e-05 0)
(-0.000285437 -1.19187e-05 0)
(-0.000243897 -1.13288e-05 0)
(-0.00020443 -1.07095e-05 0)
(-0.000167133 -1.00626e-05 0)
(-0.000132094 -9.39024e-06 0)
(-9.93973e-05 -8.69447e-06 0)
(-6.91163e-05 -7.97757e-06 0)
(-4.13173e-05 -7.24198e-06 0)
(-1.60573e-05 -6.49028e-06 0)
(6.61662e-06 -5.72525e-06 0)
(2.66676e-05 -4.94986e-06 0)
(4.40703e-05 -4.16734e-06 0)
(5.88113e-05 -3.38118e-06 0)
(7.0891e-05 -2.59525e-06 0)
(8.03242e-05 -1.81383e-06 0)
(8.71421e-05 -1.04174e-06 0)
(9.13944e-05 -2.84478e-07 0)
(9.31518e-05 4.51562e-07 0)
(9.25091e-05 1.1588e-06 0)
(8.95892e-05 1.82814e-06 0)
(8.45488e-05 2.44829e-06 0)
(7.7585e-05 3.00501e-06 0)
(6.89448e-05 3.47976e-06 0)
(5.89376e-05 3.84787e-06 0)
(4.79517e-05 4.07546e-06 0)
(3.64785e-05 4.1152e-06 0)
(2.51425e-05 3.90206e-06 0)
(1.4729e-05 3.3521e-06 0)
(6.20576e-06 2.3663e-06 0)
(7.53236e-07 9.0065e-07 0)
(-5.21582e-07 -5.20881e-07 0)
(2.05194e-06 -3.44356e-06 0)
(1.0388e-05 -1.03828e-05 0)
(2.488e-05 -1.42163e-05 0)
(4.13115e-05 -1.50086e-05 0)
(5.65627e-05 -1.35498e-05 0)
(6.8511e-05 -1.05197e-05 0)
(7.55732e-05 -6.4265e-06 0)
(7.66105e-05 -1.64108e-06 0)
(7.08529e-05 3.57064e-06 0)
(5.78132e-05 9.01838e-06 0)
(3.72169e-05 1.45649e-05 0)
(8.951e-06 2.01102e-05 0)
(-2.69753e-05 2.55813e-05 0)
(-7.04601e-05 3.09246e-05 0)
(-0.000121332 3.61012e-05 0)
(-0.000179367 4.10828e-05 0)
(-0.000244303 4.58497e-05 0)
(-0.00031585 5.03886e-05 0)
(-0.000393698 5.46912e-05 0)
(-0.000477525 5.87529e-05 0)
(-0.000567002 6.25723e-05 0)
(-0.000661796 6.61504e-05 0)
(-0.000761574 6.94899e-05 0)
(-0.000866005 7.25951e-05 0)
(-0.000974765 7.54711e-05 0)
(-0.00108753 7.81241e-05 0)
(-0.001204 8.05604e-05 0)
(-0.00132386 8.27872e-05 0)
(-0.00144682 8.48113e-05 0)
(-0.00157258 8.664e-05 0)
(-0.00170089 8.82804e-05 0)
(-0.00183146 8.97393e-05 0)
(-0.00196405 9.10235e-05 0)
(-0.00209839 9.21394e-05 0)
(-0.00223425 9.3093e-05 0)
(-0.00237139 9.38902e-05 0)
(-0.0025096 9.45361e-05 0)
(-0.00264864 9.50358e-05 0)
(-0.00278831 9.53936e-05 0)
(-0.00292841 9.56137e-05 0)
(-0.00306872 9.56996e-05 0)
(-0.00320906 9.56546e-05 0)
(-0.00334922 9.54813e-05 0)
(-0.00348904 9.51822e-05 0)
(-0.0036283 9.47593e-05 0)
(-0.00376685 9.42141e-05 0)
(-0.00390448 9.3548e-05 0)
(-0.00404103 9.27619e-05 0)
(-0.00417632 9.18564e-05 0)
(-0.00431017 9.08321e-05 0)
(-0.00444241 8.9689e-05 0)
(-0.00457285 8.84272e-05 0)
(-0.00470132 8.70466e-05 0)
(-0.00482766 8.55468e-05 0)
(-0.00495167 8.39274e-05 0)
(-0.00507319 8.2188e-05 0)
(-0.00519204 8.03282e-05 0)
(-0.00530803 7.83474e-05 0)
(-0.00542101 7.62453e-05 0)
(-0.00553077 7.40216e-05 0)
(-0.00563716 7.16759e-05 0)
(-0.00573998 6.92082e-05 0)
(-0.00583906 6.66187e-05 0)
(-0.00593423 6.39075e-05 0)
(-0.00602531 6.10752e-05 0)
(-0.00611212 5.81227e-05 0)
(-0.0061945 5.5051e-05 0)
(-0.00627226 5.18615e-05 0)
(-0.00634524 4.8556e-05 0)
(-0.00641328 4.51365e-05 0)
(-0.00647621 4.16055e-05 0)
(-0.00653388 3.79661e-05 0)
(-0.00658613 3.42213e-05 0)
(-0.00663281 3.03751e-05 0)
(-0.00667379 2.64315e-05 0)
(-0.00670893 2.23953e-05 0)
(-0.00673809 1.82716e-05 0)
(-0.00676117 1.40659e-05 0)
(-0.00677804 9.78439e-06 0)
(-0.00678861 5.4335e-06 0)
(-0.00679278 1.02029e-06 0)
(-0.00679048 -3.44777e-06 0)
(-0.00678163 -7.96271e-06 0)
(-0.00676617 -1.25162e-05 0)
(-0.00674406 -1.70993e-05 0)
(-0.00671527 -2.17028e-05 0)
(-0.00667977 -2.6317e-05 0)
(-0.00663756 -3.0932e-05 0)
(-0.00658865 -3.55372e-05 0)
(-0.00653307 -4.01221e-05 0)
(-0.00647086 -4.46755e-05 0)
(-0.00640207 -4.91861e-05 0)
(-0.00632677 -5.36425e-05 0)
(-0.00624506 -5.80329e-05 0)
(-0.00615704 -6.23455e-05 0)
(-0.00606284 -6.65683e-05 0)
(-0.0059626 -7.06892e-05 0)
(-0.00585647 -7.46962e-05 0)
(-0.00574463 -7.85773e-05 0)
(-0.00562727 -8.23206e-05 0)
(-0.00550461 -8.59141e-05 0)
(-0.00537686 -8.93464e-05 0)
(-0.00524427 -9.2606e-05 0)
(-0.00510711 -9.56819e-05 0)
(-0.00496563 -9.85632e-05 0)
(-0.00482014 -0.00010124 0)
(-0.00467093 -0.000103701 0)
(-0.00451832 -0.000105939 0)
(-0.00436264 -0.000107943 0)
(-0.00420424 -0.000109706 0)
(-0.00404346 -0.00011122 0)
(-0.00388067 -0.000112478 0)
(-0.00371625 -0.000113474 0)
(-0.00355057 -0.000114202 0)
(-0.00338402 -0.000114658 0)
(-0.003217 -0.000114838 0)
(-0.0030499 -0.000114739 0)
(-0.00288314 -0.000114359 0)
(-0.0027171 -0.000113697 0)
(-0.0025522 -0.000112753 0)
(-0.00238885 -0.000111526 0)
(-0.00222744 -0.00011002 0)
(-0.00206838 -0.000108237 0)
(-0.00191206 -0.00010618 0)
(-0.00175887 -0.000103853 0)
(-0.00160919 -0.000101264 0)
(-0.00146339 -9.84169e-05 0)
(-0.00132184 -9.53207e-05 0)
(-0.00118489 -9.19835e-05 0)
(-0.00105288 -8.84147e-05 0)
(-0.000926129 -8.46247e-05 0)
(-0.000804944 -8.06249e-05 0)
(-0.000689617 -7.64274e-05 0)
(-0.00058042 -7.20457e-05 0)
(-0.000477604 -6.74938e-05 0)
(-0.0003814 -6.27873e-05 0)
(-0.000292014 -5.79423e-05 0)
(-0.000209627 -5.29765e-05 0)
(-0.000134395 -4.79087e-05 0)
(-6.64436e-05 -4.2759e-05 0)
(-5.86811e-06 -3.75493e-05 0)
(4.72696e-05 -3.23029e-05 0)
(9.29438e-05 -2.70456e-05 0)
(0.000131168 -2.18055e-05 0)
(0.000162001 -1.66137e-05 0)
(0.000185546 -1.15051e-05 0)
(0.000201964 -6.5189e-06 0)
(0.000211474 -1.70022e-06 0)
(0.000214366 2.89878e-06 0)
(0.000211007 7.21676e-06 0)
(0.000201859 1.11805e-05 0)
(0.000187491 1.47015e-05 0)
(0.000168603 1.76708e-05 0)
(0.000146045 1.99534e-05 0)
(0.000120853 2.13794e-05 0)
(9.42745e-05 2.17365e-05 0)
(6.78061e-05 2.07673e-05 0)
(4.31798e-05 1.81875e-05 0)
(2.23088e-05 1.37405e-05 0)
(7.42629e-06 7.43595e-06 0)
(8.9596e-07 7.51596e-07 0)
(3.09027e-06 -1.02668e-05 0)
(1.42504e-05 -2.48833e-05 0)
(3.21928e-05 -3.21369e-05 0)
(5.13366e-05 -3.28138e-05 0)
(6.77575e-05 -2.83383e-05 0)
(7.87308e-05 -2.0034e-05 0)
(8.21136e-05 -8.98703e-06 0)
(7.62863e-05 3.95038e-06 0)
(6.00984e-05 1.81265e-05 0)
(3.27803e-05 3.30479e-05 0)
(-6.13596e-06 4.83418e-05 0)
(-5.68794e-05 6.37264e-05 0)
(-0.000119491 7.89889e-05 0)
(-0.000193867 9.39686e-05 0)
(-0.000279788 0.000108545 0)
(-0.000376947 0.000122629 0)
(-0.000484973 0.000136154 0)
(-0.000603444 0.000149076 0)
(-0.0007319 0.000161361 0)
(-0.000869859 0.000172992 0)
(-0.00101682 0.000183957 0)
(-0.00117228 0.000194255 0)
(-0.00133571 0.000203887 0)
(-0.00150662 0.000212863 0)
(-0.00168448 0.000221192 0)
(-0.0018688 0.00022889 0)
(-0.00205909 0.000235972 0)
(-0.00225486 0.000242455 0)
(-0.00245565 0.000248356 0)
(-0.00266099 0.000253696 0)
(-0.00287046 0.000258491 0)
(-0.0030836 0.000262761 0)
(-0.00330002 0.000266523 0)
(-0.0035193 0.000269794 0)
(-0.00374105 0.000272591 0)
(-0.0039649 0.00027493 0)
(-0.00419046 0.000276825 0)
(-0.0044174 0.00027829 0)
(-0.00464535 0.000279336 0)
(-0.00487398 0.000279976 0)
(-0.00510296 0.000280219 0)
(-0.00533196 0.000280075 0)
(-0.00556067 0.000279551 0)
(-0.00578878 0.000278654 0)
(-0.00601598 0.000277389 0)
(-0.00624197 0.000275763 0)
(-0.00646646 0.000273778 0)
(-0.00668914 0.000271437 0)
(-0.00690972 0.000268742 0)
(-0.00712791 0.000265696 0)
(-0.00734343 0.000262299 0)
(-0.00755598 0.000258551 0)
(-0.00776528 0.000254453 0)
(-0.00797103 0.000250003 0)
(-0.00817295 0.000245202 0)
(-0.00837075 0.000240048 0)
(-0.00856413 0.000234541 0)
(-0.00875282 0.000228679 0)
(-0.00893651 0.000222463 0)
(-0.00911493 0.000215891 0)
(-0.00928778 0.000208964 0)
(-0.00945477 0.000201681 0)
(-0.00961562 0.000194045 0)
(-0.00977003 0.000186055 0)
(-0.00991773 0.000177715 0)
(-0.0100584 0.000169027 0)
(-0.0101919 0.000159994 0)
(-0.0103177 0.000150622 0)
(-0.0104358 0.000140916 0)
(-0.0105457 0.000130882 0)
(-0.0106474 0.000120528 0)
(-0.0107404 0.000109864 0)
(-0.0108246 9.8898e-05 0)
(-0.0108997 8.76427e-05 0)
(-0.0109655 7.61102e-05 0)
(-0.0110217 6.43144e-05 0)
(-0.0110683 5.22704e-05 0)
(-0.011105 3.99947e-05 0)
(-0.0111315 2.7505e-05 0)
(-0.0111479 1.48207e-05 0)
(-0.0111538 1.96207e-06 0)
(-0.0111493 -1.1049e-05 0)
(-0.0111341 -2.41893e-05 0)
(-0.0111082 -3.74346e-05 0)
(-0.0110715 -5.07593e-05 0)
(-0.011024 -6.41365e-05 0)
(-0.0109657 -7.75384e-05 0)
(-0.0108965 -9.0936e-05 0)
(-0.0108165 -0.000104299 0)
(-0.0107257 -0.000117598 0)
(-0.0106241 -0.000130799 0)
(-0.010512 -0.000143871 0)
(-0.0103893 -0.000156781 0)
(-0.0102563 -0.000169495 0)
(-0.0101131 -0.00018198 0)
(-0.00995999 -0.0001942 0)
(-0.00979711 -0.000206122 0)
(-0.00962474 -0.000217712 0)
(-0.00944317 -0.000228934 0)
(-0.00925271 -0.000239755 0)
(-0.00905371 -0.000250141 0)
(-0.00884652 -0.000260059 0)
(-0.00863154 -0.000269477 0)
(-0.00840918 -0.000278364 0)
(-0.00817989 -0.000286687 0)
(-0.00794413 -0.000294419 0)
(-0.00770239 -0.000301531 0)
(-0.00745517 -0.000307997 0)
(-0.00720301 -0.00031379 0)
(-0.00694646 -0.000318888 0)
(-0.00668607 -0.00032327 0)
(-0.00642245 -0.000326915 0)
(-0.00615617 -0.000329805 0)
(-0.00588785 -0.000331927 0)
(-0.00561812 -0.000333266 0)
(-0.0053476 -0.000333812 0)
(-0.00507693 -0.000333557 0)
(-0.00480675 -0.000332494 0)
(-0.00453772 -0.000330622 0)
(-0.00427047 -0.000327939 0)
(-0.00400567 -0.000324448 0)
(-0.00374394 -0.000320154 0)
(-0.00348592 -0.000315064 0)
(-0.00323226 -0.000309191 0)
(-0.00298356 -0.000302545 0)
(-0.00274045 -0.000295145 0)
(-0.00250351 -0.00028701 0)
(-0.00227331 -0.00027816 0)
(-0.00205043 -0.00026862 0)
(-0.0018354 -0.000258419 0)
(-0.00162873 -0.000247586 0)
(-0.00143091 -0.000236155 0)
(-0.0012424 -0.000224161 0)
(-0.00106364 -0.000211643 0)
(-0.000895013 -0.000198643 0)
(-0.000736892 -0.000185205 0)
(-0.000589598 -0.000171379 0)
(-0.000453414 -0.000157215 0)
(-0.000328581 -0.000142769 0)
(-0.000215292 -0.000128101 0)
(-0.000113688 -0.000113273 0)
(-2.38575e-05 -9.83569e-05 0)
(5.41701e-05 -8.34269e-05 0)
(0.00012043 -6.85659e-05 0)
(0.000175028 -5.38654e-05 0)
(0.000218148 -3.94268e-05 0)
(0.000250058 -2.53642e-05 0)
(0.000271123 -1.1807e-05 0)
(0.000281816 1.09642e-06 0)
(0.000282733 1.31743e-05 0)
(0.000274609 2.42254e-05 0)
(0.00025834 3.40123e-05 0)
(0.000235003 4.22521e-05 0)
(0.000205889 4.86072e-05 0)
(0.000172524 5.26759e-05 0)
(0.000136699 5.39878e-05 0)
(0.000100489 5.20189e-05 0)
(6.61969e-05 4.62504e-05 0)
(3.62693e-05 3.63038e-05 0)
(1.37075e-05 2.23089e-05 0)
(2.35317e-06 6.1895e-06 0)
(3.38528e-06 -1.85328e-05 0)
(1.50966e-05 -4.13658e-05 0)
(3.29787e-05 -5.13047e-05 0)
(5.06098e-05 -5.04148e-05 0)
(6.35731e-05 -4.0922e-05 0)
(6.87898e-05 -2.48603e-05 0)
(6.37895e-05 -3.95059e-06 0)
(4.6655e-05 2.04094e-05 0)
(1.59814e-05 4.71102e-05 0)
(-2.92059e-05 7.52823e-05 0)
(-8.95272e-05 0.000104248 0)
(-0.000165313 0.000133483 0)
(-0.000256661 0.000162579 0)
(-0.000363477 0.000191223 0)
(-0.000485519 0.000219177 0)
(-0.000622429 0.000246257 0)
(-0.000773753 0.000272328 0)
(-0.000938969 0.000297291 0)
(-0.0011175 0.000321077 0)
(-0.00130874 0.000343639 0)
(-0.00151203 0.000364949 0)
(-0.00172673 0.000384997 0)
(-0.00195217 0.00040378 0)
(-0.00218767 0.000421309 0)
(-0.00243256 0.000437599 0)
(-0.00268619 0.000452673 0)
(-0.0029479 0.000466558 0)
(-0.00321705 0.000479284 0)
(-0.00349301 0.00049088 0)
(-0.00377517 0.000501382 0)
(-0.00406294 0.000510821 0)
(-0.00435572 0.000519232 0)
(-0.00465295 0.000526646 0)
(-0.00495409 0.000533097 0)
(-0.0052586 0.000538614 0)
(-0.00556597 0.000543226 0)
(-0.00587568 0.000546961 0)
(-0.00618724 0.000549843 0)
(-0.00650019 0.000551898 0)
(-0.00681405 0.000553145 0)
(-0.00712836 0.000553604 0)
(-0.00744268 0.000553292 0)
(-0.00775658 0.000552225 0)
(-0.00806962 0.000550415 0)
(-0.00838137 0.000547874 0)
(-0.00869143 0.000544611 0)
(-0.00899938 0.000540634 0)
(-0.00930481 0.000535949 0)
(-0.00960731 0.00053056 0)
(-0.00990649 0.000524471 0)
(-0.0102019 0.000517685 0)
(-0.0104932 0.000510201 0)
(-0.01078 0.000502022 0)
(-0.0110619 0.000493146 0)
(-0.0113384 0.000483573 0)
(-0.0116093 0.000473302 0)
(-0.011874 0.000462333 0)
(-0.0121322 0.000450663 0)
(-0.0123834 0.000438294 0)
(-0.0126274 0.000425224 0)
(-0.0128637 0.000411455 0)
(-0.0130919 0.000396987 0)
(-0.0133116 0.000381823 0)
(-0.0135224 0.000365967 0)
(-0.0137239 0.000349424 0)
(-0.0139158 0.0003322 0)
(-0.0140977 0.000314302 0)
(-0.0142691 0.000295742 0)
(-0.0144299 0.00027653 0)
(-0.0145795 0.000256679 0)
(-0.0147176 0.000236207 0)
(-0.0148439 0.00021513 0)
(-0.0149581 0.00019347 0)
(-0.0150598 0.000171248 0)
(-0.0151488 0.00014849 0)
(-0.0152247 0.000125224 0)
(-0.0152874 0.000101479 0)
(-0.0153365 7.72879e-05 0)
(-0.0153718 5.26866e-05 0)
(-0.0153931 2.77128e-05 0)
(-0.0154002 2.40674e-06 0)
(-0.0153929 -2.31886e-05 0)
(-0.0153712 -4.90279e-05 0)
(-0.0153349 -7.50632e-05 0)
(-0.0152839 -0.000101244 0)
(-0.0152181 -0.000127519 0)
(-0.0151375 -0.000153833 0)
(-0.0150422 -0.000180129 0)
(-0.0149321 -0.000206349 0)
(-0.0148074 -0.000232434 0)
(-0.0146681 -0.00025832 0)
(-0.0145143 -0.000283945 0)
(-0.0143463 -0.000309246 0)
(-0.0141642 -0.000334156 0)
(-0.0139684 -0.000358609 0)
(-0.0137589 -0.00038254 0)
(-0.0135363 -0.000405882 0)
(-0.0133008 -0.000428568 0)
(-0.0130528 -0.000450531 0)
(-0.0127928 -0.000471706 0)
(-0.0125211 -0.000492028 0)
(-0.0122384 -0.000511432 0)
(-0.0119451 -0.000529856 0)
(-0.0116418 -0.000547239 0)
(-0.0113291 -0.000563522 0)
(-0.0110076 -0.000578648 0)
(-0.010678 -0.000592563 0)
(-0.010341 -0.000605216 0)
(-0.00999729 -0.000616557 0)
(-0.00964759 -0.000626542 0)
(-0.00929269 -0.00063513 0)
(-0.00893337 -0.000642281 0)
(-0.00857043 -0.000647964 0)
(-0.0082047 -0.000652147 0)
(-0.00783701 -0.000654807 0)
(-0.00746822 -0.000655923 0)
(-0.00709918 -0.000655479 0)
(-0.00673076 -0.000653464 0)
(-0.00636383 -0.000649873 0)
(-0.00599926 -0.000644705 0)
(-0.00563791 -0.000637965 0)
(-0.00528067 -0.000629664 0)
(-0.00492837 -0.000619817 0)
(-0.00458188 -0.000608444 0)
(-0.00424203 -0.000595573 0)
(-0.00390963 -0.000581235 0)
(-0.00358548 -0.000565467 0)
(-0.00327036 -0.000548314 0)
(-0.00296502 -0.000529822 0)
(-0.00267018 -0.000510046 0)
(-0.00238653 -0.000489046 0)
(-0.00211473 -0.000466887 0)
(-0.00185539 -0.000443639 0)
(-0.00160908 -0.000419379 0)
(-0.00137633 -0.000394189 0)
(-0.00115764 -0.000368159 0)
(-0.000953419 -0.000341382 0)
(-0.000764051 -0.000313961 0)
(-0.000589849 -0.000286005 0)
(-0.000431062 -0.000257633 0)
(-0.000287873 -0.000228969 0)
(-0.000160389 -0.000200153 0)
(-4.86366e-05 -0.000171332 0)
(4.74436e-05 -0.000142668 0)
(0.000128006 -0.000114342 0)
(0.000193309 -8.6551e-05 0)
(0.000243724 -5.95159e-05 0)
(0.000279749 -3.34858e-05 0)
(0.000302022 -8.74316e-06 0)
(0.000311337 1.43888e-05 0)
(0.000308664 3.55375e-05 0)
(0.000295166 5.42713e-05 0)
(0.000272226 7.00881e-05 0)
(0.00024147 8.24053e-05 0)
(0.000204785 9.05527e-05 0)
(0.000164345 9.37768e-05 0)
(0.000122615 9.12738e-05 0)
(8.22919e-05 8.22766e-05 0)
(4.6226e-05 6.62296e-05 0)
(1.81417e-05 4.31603e-05 0)
(3.33017e-06 1.46827e-05 0)
(3.19185e-06 -2.66044e-05 0)
(1.37041e-05 -5.6728e-05 0)
(2.8627e-05 -6.78115e-05 0)
(4.12865e-05 -6.34081e-05 0)
(4.70417e-05 -4.66714e-05 0)
(4.26139e-05 -2.03898e-05 0)
(2.53567e-05 1.30645e-05 0)
(-6.81113e-06 5.17311e-05 0)
(-5.5445e-05 9.40184e-05 0)
(-0.000121649 0.000138648 0)
(-0.000206148 0.000184602 0)
(-0.000309346 0.000231072 0)
(-0.000431383 0.000277423 0)
(-0.000572179 0.000323155 0)
(-0.000731479 0.000367879 0)
(-0.000908884 0.000411297 0)
(-0.00110388 0.000453179 0)
(-0.00131587 0.000493356 0)
(-0.00154419 0.000531705 0)
(-0.0017881 0.000568141 0)
(-0.00204686 0.00060261 0)
(-0.00231968 0.000635083 0)
(-0.00260575 0.00066555 0)
(-0.00290427 0.000694019 0)
(-0.00321444 0.000720509 0)
(-0.00353544 0.000745049 0)
(-0.00386648 0.000767676 0)
(-0.00420678 0.000788433 0)
(-0.00455556 0.000807366 0)
(-0.00491206 0.000824523 0)
(-0.00527555 0.000839956 0)
(-0.00564531 0.000853714 0)
(-0.00602062 0.000865848 0)
(-0.00640082 0.000876406 0)
(-0.00678522 0.000885436 0)
(-0.00717318 0.000892983 0)
(-0.00756407 0.000899089 0)
(-0.00795726 0.000903794 0)
(-0.00835216 0.000907134 0)
(-0.00874817 0.000909144 0)
(-0.00914472 0.000909854 0)
(-0.00954125 0.000909292 0)
(-0.0099372 0.00090748 0)
(-0.010332 0.000904442 0)
(-0.0107252 0.000900194 0)
(-0.0111161 0.000894752 0)
(-0.0115044 0.00088813 0)
(-0.0118894 0.000880336 0)
(-0.0122707 0.000871379 0)
(-0.0126477 0.000861266 0)
(-0.0130199 0.000849999 0)
(-0.0133869 0.000837583 0)
(-0.0137481 0.000824018 0)
(-0.0141029 0.000809306 0)
(-0.0144511 0.000793445 0)
(-0.0147919 0.000776436 0)
(-0.0151249 0.000758278 0)
(-0.0154496 0.00073897 0)
(-0.0157656 0.000718514 0)
(-0.0160722 0.00069691 0)
(-0.0163691 0.000674159 0)
(-0.0166557 0.000650267 0)
(-0.0169315 0.000625237 0)
(-0.0171961 0.000599076 0)
(-0.0174489 0.000571795 0)
(-0.0176895 0.000543404 0)
(-0.0179174 0.000513917 0)
(-0.0181322 0.000483353 0)
(-0.0183334 0.000451729 0)
(-0.0185205 0.000419071 0)
(-0.0186931 0.000385405 0)
(-0.0188509 0.00035076 0)
(-0.0189933 0.000315172 0)
(-0.0191201 0.000278677 0)
(-0.0192308 0.000241318 0)
(-0.019325 0.00020314 0)
(-0.0194026 0.000164193 0)
(-0.0194631 0.000124531 0)
(-0.0195063 8.42129e-05 0)
(-0.0195318 4.32995e-05 0)
(-0.0195396 1.85751e-06 0)
(-0.0195294 -4.00427e-05 0)
(-0.019501 -8.2327e-05 0)
(-0.0194543 -0.000124917 0)
(-0.0193891 -0.000167732 0)
(-0.0193055 -0.000210685 0)
(-0.0192034 -0.000253689 0)
(-0.0190828 -0.00029665 0)
(-0.0189438 -0.000339475 0)
(-0.0187864 -0.000382066 0)
(-0.0186108 -0.000424323 0)
(-0.0184171 -0.000466142 0)
(-0.0182057 -0.000507422 0)
(-0.0179766 -0.000548055 0)
(-0.0177303 -0.000587936 0)
(-0.0174671 -0.000626957 0)
(-0.0171875 -0.00066501 0)
(-0.0168917 -0.000701988 0)
(-0.0165804 -0.000737784 0)
(-0.0162541 -0.00077229 0)
(-0.0159132 -0.000805403 0)
(-0.0155586 -0.000837019 0)
(-0.0151908 -0.000867037 0)
(-0.0148105 -0.000895359 0)
(-0.0144184 -0.00092189 0)
(-0.0140154 -0.000946538 0)
(-0.0136023 -0.000969217 0)
(-0.0131799 -0.000989844 0)
(-0.0127492 -0.00100834 0)
(-0.0123109 -0.00102463 0)
(-0.0118662 -0.00103866 0)
(-0.0114159 -0.00105035 0)
(-0.010961 -0.00105966 0)
(-0.0105027 -0.00106654 0)
(-0.0100418 -0.00107094 0)
(-0.00957953 -0.00107284 0)
(-0.00911686 -0.00107222 0)
(-0.00865488 -0.00106904 0)
(-0.00819469 -0.00106331 0)
(-0.00773734 -0.00105503 0)
(-0.00728393 -0.0010442 0)
(-0.00683551 -0.00103084 0)
(-0.00639315 -0.00101498 0)
(-0.0059579 -0.000996645 0)
(-0.00553079 -0.000975885 0)
(-0.00511284 -0.000952751 0)
(-0.00470502 -0.000927304 0)
(-0.00430829 -0.000899614 0)
(-0.00392359 -0.00086976 0)
(-0.0035518 -0.000837831 0)
(-0.00319377 -0.000803924 0)
(-0.00285031 -0.000768145 0)
(-0.00252217 -0.000730611 0)
(-0.00221007 -0.000691446 0)
(-0.00191465 -0.000650786 0)
(-0.00163651 -0.000608775 0)
(-0.00137616 -0.00056557 0)
(-0.00113408 -0.000521337 0)
(-0.000910622 -0.000476256 0)
(-0.000706107 -0.00043052 0)
(-0.000520743 -0.000384336 0)
(-0.000354655 -0.000337927 0)
(-0.000207866 -0.000291538 0)
(-8.02922e-05 -0.000245432 0)
(2.82662e-05 -0.000199898 0)
(0.000118135 -0.000155258 0)
(0.000189778 -0.000111864 0)
(0.00024381 -7.01135e-05 0)
(0.000281009 -3.04504e-05 0)
(0.000302336 6.62178e-06 0)
(0.000308952 4.05308e-05 0)
(0.000302236 7.06241e-05 0)
(0.000283807 9.61572e-05 0)
(0.000255542 0.000116284 0)
(0.000219592 0.000130056 0)
(0.000178405 0.000136428 0)
(0.000134731 0.000134307 0)
(9.15661e-05 0.000122641 0)
(5.21197e-05 0.000100585 0)
(2.07476e-05 6.77968e-05 0)
(3.87661e-06 2.50619e-05 0)
(2.69565e-06 -3.34793e-05 0)
(1.07341e-05 -6.88424e-05 0)
(2.04118e-05 -7.89118e-05 0)
(2.53075e-05 -6.86757e-05 0)
(2.08012e-05 -4.22495e-05 0)
(3.54047e-06 -3.19287e-06 0)
(-2.91842e-05 4.54677e-05 0)
(-7.95167e-05 0.000101208 0)
(-0.000149079 0.000161948 0)
(-0.00023904 0.000225988 0)
(-0.000350178 0.00029195 0)
(-0.000482938 0.000358724 0)
(-0.000637484 0.00042542 0)
(-0.000813742 0.000491329 0)
(-0.00101144 0.000555893 0)
(-0.00123015 0.000618672 0)
(-0.00146931 0.000679329 0)
(-0.00172825 0.000737607 0)
(-0.00200623 0.000793316 0)
(-0.00230244 0.000846322 0)
(-0.00261601 0.000896533 0)
(-0.00294605 0.000943897 0)
(-0.00329166 0.000988389 0)
(-0.00365189 0.00103001 0)
(-0.00402583 0.00106878 0)
(-0.00441254 0.00110473 0)
(-0.00481109 0.00113791 0)
(-0.00522057 0.00116837 0)
(-0.00564007 0.00119617 0)
(-0.00606872 0.00122138 0)
(-0.00650563 0.00124408 0)
(-0.00694996 0.00126431 0)
(-0.00740087 0.00128217 0)
(-0.00785757 0.0012977 0)
(-0.00831924 0.00131099 0)
(-0.00878512 0.00132208 0)
(-0.00925446 0.00133105 0)
(-0.00972651 0.00133794 0)
(-0.0102005 0.00134282 0)
(-0.0106759 0.00134572 0)
(-0.0111518 0.00134669 0)
(-0.0116276 0.00134578 0)
(-0.0121027 0.001343 0)
(-0.0125764 0.0013384 0)
(-0.013048 0.00133201 0)
(-0.013517 0.00132384 0)
(-0.0139826 0.00131391 0)
(-0.0144442 0.00130224 0)
(-0.0149013 0.00128884 0)
(-0.0153532 0.00127372 0)
(-0.0157993 0.00125689 0)
(-0.016239 0.00123835 0)
(-0.0166716 0.0012181 0)
(-0.0170967 0.00119615 0)
(-0.0175135 0.0011725 0)
(-0.0179215 0.00114715 0)
(-0.01832 0.0011201 0)
(-0.0187085 0.00109135 0)
(-0.0190864 0.0010609 0)
(-0.0194531 0.00102876 0)
(-0.019808 0.000994924 0)
(-0.0201504 0.000959408 0)
(-0.0204799 0.000922218 0)
(-0.0207958 0.000883365 0)
(-0.0210975 0.000842865 0)
(-0.0213846 0.000800737 0)
(-0.0216563 0.000757002 0)
(-0.0219123 0.000711687 0)
(-0.0221519 0.000664823 0)
(-0.0223747 0.000616447 0)
(-0.02258 0.000566597 0)
(-0.0227675 0.000515321 0)
(-0.0229366 0.00046267 0)
(-0.023087 0.000408699 0)
(-0.0232181 0.000353472 0)
(-0.0233295 0.000297057 0)
(-0.0234209 0.000239528 0)
(-0.023492 0.000180965 0)
(-0.0235423 0.000121453 0)
(-0.0235716 6.10853e-05 0)
(-0.0235797 -4.11639e-08 0)
(-0.0235662 -6.18226e-05 0)
(-0.0235311 -0.00012415 0)
(-0.0234741 -0.000186908 0)
(-0.0233951 -0.000249977 0)
(-0.0232942 -0.000313231 0)
(-0.0231712 -0.000376541 0)
(-0.0230262 -0.000439773 0)
(-0.0228592 -0.000502786 0)
(-0.0226704 -0.000565438 0)
(-0.0224599 -0.000627584 0)
(-0.022228 -0.000689074 0)
(-0.0219749 -0.000749757 0)
(-0.0217009 -0.000809478 0)
(-0.0214064 -0.000868081 0)
(-0.0210918 -0.000925412 0)
(-0.0207576 -0.000981313 0)
(-0.0204044 -0.00103563 0)
(-0.0200326 -0.0010882 0)
(-0.019643 -0.00113887 0)
(-0.0192363 -0.00118749 0)
(-0.0188131 -0.00123392 0)
(-0.0183742 -0.001278 0)
(-0.0179206 -0.00131959 0)
(-0.017453 -0.00135855 0)
(-0.0169723 -0.00139475 0)
(-0.0164797 -0.00142807 0)
(-0.015976 -0.00145838 0)
(-0.0154623 -0.00148557 0)
(-0.0149398 -0.00150954 0)
(-0.0144095 -0.00153019 0)
(-0.0138725 -0.00154743 0)
(-0.0133301 -0.00156118 0)
(-0.0127835 -0.00157138 0)
(-0.0122338 -0.00157797 0)
(-0.0116823 -0.0015809 0)
(-0.0111303 -0.00158013 0)
(-0.0105791 -0.00157564 0)
(-0.0100298 -0.00156743 0)
(-0.00948379 -0.00155548 0)
(-0.00894232 -0.00153981 0)
(-0.00840665 -0.00152045 0)
(-0.00787802 -0.00149743 0)
(-0.00735767 -0.00147081 0)
(-0.0068468 -0.00144065 0)
(-0.00634662 -0.00140702 0)
(-0.00585827 -0.00137002 0)
(-0.00538289 -0.00132975 0)
(-0.00492156 -0.00128633 0)
(-0.00447534 -0.00123988 0)
(-0.0040452 -0.00119055 0)
(-0.00363212 -0.00113849 0)
(-0.00323696 -0.00108388 0)
(-0.00286057 -0.00102691 0)
(-0.0025037 -0.000967757 0)
(-0.00216704 -0.000906652 0)
(-0.00185121 -0.00084382 0)
(-0.00155673 -0.000779507 0)
(-0.00128405 -0.000713978 0)
(-0.00103352 -0.000647515 0)
(-0.00080537 -0.000580424 0)
(-0.00059975 -0.000513032 0)
(-0.000416677 -0.000445696 0)
(-0.000256049 -0.000378801 0)
(-0.000117625 -0.000312769 0)
(-1.02269e-06 -0.000248061 0)
(9.43005e-05 -0.000185187 0)
(0.000169055 -0.000124711 0)
(0.000224138 -6.72627e-05 0)
(0.000260644 -1.35458e-05 0)
(0.000279886 3.56486e-05 0)
(0.00028341 7.94305e-05 0)
(0.000273013 0.0001168 0)
(0.00025076 0.000146638 0)
(0.000218999 0.000167708 0)
(0.000180376 0.000178669 0)
(0.00013786 0.000178115 0)
(9.46934e-05 0.000164656 0)
(5.43949e-05 0.000137046 0)
(2.1808e-05 9.43798e-05 0)
(4.09657e-06 3.63862e-05 0)
(2.01365e-06 -3.84847e-05 0)
(6.67321e-06 -7.60942e-05 0)
(9.36361e-06 -8.24025e-05 0)
(4.28998e-06 -6.3656e-05 0)
(-1.29401e-05 -2.48865e-05 0)
(-4.56404e-05 2.95958e-05 0)
(-9.64898e-05 9.61262e-05 0)
(-0.000167613 0.000171629 0)
(-0.000260629 0.000253542 0)
(-0.000376713 0.000339744 0)
(-0.000516654 0.000428495 0)
(-0.000680903 0.00051837 0)
(-0.000869624 0.000608215 0)
(-0.00108273 0.000697097 0)
(-0.00131994 0.00078427 0)
(-0.00158078 0.000869144 0)
(-0.00186465 0.000951255 0)
(-0.00217081 0.00103025 0)
(-0.00249847 0.00110585 0)
(-0.00284673 0.00117788 0)
(-0.00321464 0.00124618 0)
(-0.00360122 0.00131069 0)
(-0.00400546 0.00137135 0)
(-0.00442632 0.00142815 0)
(-0.00486276 0.0014811 0)
(-0.00531374 0.00153025 0)
(-0.00577822 0.00157565 0)
(-0.00625515 0.00161736 0)
(-0.00674353 0.00165545 0)
(-0.00724235 0.00169002 0)
(-0.00775062 0.00172114 0)
(-0.00826736 0.0017489 0)
(-0.00879163 0.00177339 0)
(-0.0093225 0.00179471 0)
(-0.00985905 0.00181293 0)
(-0.0104004 0.00182813 0)
(-0.0109457 0.0018404 0)
(-0.011494 0.00184982 0)
(-0.0120446 0.00185643 0)
(-0.0125966 0.00186032 0)
(-0.0131493 0.00186154 0)
(-0.0137017 0.00186015 0)
(-0.0142533 0.00185618 0)
(-0.0148031 0.00184967 0)
(-0.0153504 0.00184068 0)
(-0.0158946 0.00182922 0)
(-0.0164348 0.00181532 0)
(-0.0169703 0.001799 0)
(-0.0175005 0.00178029 0)
(-0.0180245 0.00175919 0)
(-0.0185417 0.00173571 0)
(-0.0190514 0.00170987 0)
(-0.0195529 0.00168166 0)
(-0.0200454 0.0016511 0)
(-0.0205283 0.00161818 0)
(-0.0210008 0.00158291 0)
(-0.0214623 0.0015453 0)
(-0.0219121 0.00150533 0)
(-0.0223494 0.00146303 0)
(-0.0227736 0.00141839 0)
(-0.0231841 0.00137142 0)
(-0.02358 0.00132213 0)
(-0.0239608 0.00127055 0)
(-0.0243258 0.00121668 0)
(-0.0246744 0.00116055 0)
(-0.0250057 0.00110218 0)
(-0.0253194 0.00104162 0)
(-0.0256146 0.000978894 0)
(-0.0258909 0.000914051 0)
(-0.0261475 0.00084714 0)
(-0.026384 0.00077822 0)
(-0.0265997 0.000707356 0)
(-0.0267941 0.000634618 0)
(-0.0269667 0.000560086 0)
(-0.0271171 0.000483848 0)
(-0.0272447 0.000405998 0)