/*--------------------------------*- C++ -*----------------------------------*\
| =========                 |                                                 |
| \\      /  F ield         | OpenFOAM: The Open Source CFD Toolbox           |
|  \\    /   O peration     | Version:  2.1.1                                 |
|   \\  /    A nd           | Web:      www.OpenFOAM.org                      |
|    \\/     M anipulation  |                                                 |
\*---------------------------------------------------------------------------*/
FoamFile
{
    version     2.0;
    format      ascii;
    class       volScalarField;
    location    "1.5";
    object      p;
}
// * * * * * * * * * * * * * * * * * * * * * * * * * * * * * * * * * * * * * //

dimensions      [0 2 -2 0 0 0 0];

internalField   nonuniform List<scalar> 
1681
(
1.81602e-08
-0.000133878
-0.000431733
-0.000820693
-0.00123063
-0.00161615
-0.00194703
-0.00220447
-0.00237758
-0.0024604
-0.00244977
-0.00234411
-0.00214272
-0.0018456
-0.00145365
-0.000969115
-0.00039609
0.000258852
0.00098614
0.0017728
0.00260227
0.00345446
0.00430612
0.0051316
0.00590384
0.00659579
0.00718192
0.00763994
0.00795252
0.00810882
0.00810573
0.00794877
0.00765241
0.00724003
0.00674339
0.00620165
0.0056604
0.00517035
0.00478486
0.00456113
0.00452732
0.000133125
-2.86569e-06
-0.000243694
-0.000544894
-0.000862684
-0.00116351
-0.00142349
-0.00162648
-0.00176198
-0.00182342
-0.00180673
-0.00170945
-0.0015302
-0.00126851
-0.000924946
-0.000501416
-1.57176e-06
0.000568729
0.00120101
0.00188389
0.00260289
0.00334066
0.00407711
0.00479023
0.00545692
0.00605417
0.00656045
0.00695715
0.00723003
0.00737052
0.00737679
0.00725438
0.00701646
0.00668353
0.0062828
0.0058472
0.00541391
0.00502097
0.00471009
0.00452358
0.00449281
0.00043648
0.00023372
-1.24192e-05
-0.000284329
-0.000560504
-0.000817158
-0.00103661
-0.00120668
-0.00131903
-0.00136802
-0.00134983
-0.00126188
-0.00110247
-0.000870672
-0.000566518
-0.000191253
0.000252271
0.000759188
0.00132224
0.00193148
0.00257414
0.00323478
0.00389536
0.00453607
0.00513601
0.00567432
0.00613144
0.00649048
0.00673855
0.00686801
0.00687737
0.0067719
0.00656369
0.00627134
0.00591912
0.00553577
0.00515298
0.00480311
0.00451838
0.00433306
0.00427422
0.000843007
0.000534547
0.000244985
-3.33279e-05
-0.000299782
-0.000538608
-0.000737995
-0.000890401
-0.00099052
-0.00103452
-0.00101954
-0.000943334
-0.000804059
-0.000600358
-0.000331557
1.99567e-06
0.000398519
0.000854361
0.00136359
0.00191769
0.00250532
0.0031125
0.00372253
0.00431685
0.00487564
0.00537888
0.00580764
0.00614541
0.00637947
0.00650207
0.00651142
0.00641218
0.00621551
0.00593863
0.00560388
0.00523734
0.00486723
0.00452225
0.00423009
0.00401551
0.00389543
0.00128349
0.000853524
0.000502994
0.000200799
-7.23921e-05
-0.000307853
-0.000499303
-0.000643915
-0.000739703
-0.000784955
-0.00077802
-0.000717133
-0.000600398
-0.000425961
-0.00019232
0.000101261
0.00045427
0.000864452
0.00132733
0.00183583
0.00238001
0.00294701
0.00352122
0.00408476
0.0046182
0.00510162
0.00551589
0.00584402
0.00607262
0.00619315
0.00620292
0.00610566
0.00591155
0.00563664
0.00530189
0.00493155
0.00455154
0.00418819
0.00386658
0.00360145
0.00339772
0.00170612
0.0011495
0.000729016
0.000391975
0.000100603
-0.000142491
-0.000336051
-0.000481753
-0.000580874
-0.000633849
-0.00064028
-0.00059891
-0.000507748
-0.000364362
-0.000166291
8.84449e-05
0.000400772
0.000769981
0.00119316
0.00166471
0.00217602
0.00271522
0.00326744
0.00381509
0.0043386
0.00481749
0.00523167
0.00556289
0.00579631
0.00592186
0.00593538
0.00583924
0.00564242
0.00535994
0.00501179
0.00462116
0.00421275
0.00381197
0.00344285
0.00311131
0.00281058
0.00206803
0.00138586
0.000891874
0.000513577
0.000196317
-6.26295e-05
-0.00026652
-0.000421171
-0.000530901
-0.000598145
-0.000623651
-0.000606574
-0.000544724
-0.000434963
-0.000273725
-5.76282e-05
0.000215859
0.000547724
0.000936733
0.00137885
0.00186676
0.00238954
0.00293284
0.00347905
0.00400802
0.00449814
0.0049277
0.00527644
0.00552728
0.00566783
0.00569174
0.00559947
0.00539847
0.00510273
0.00473154
0.00430775
0.00385586
0.00340172
0.00297002
0.00255944
0.00215302
0.00233266
0.00152967
0.00096234
0.000539941
0.000192243
-8.82511e-05
-0.000308873
-0.000479192
-0.000606254
-0.000694253
-0.000744875
-0.000757515
-0.000729614
-0.000657166
-0.00053533
-0.000359142
-0.000124289
0.000172092
0.000530616
0.000948931
0.00142112
0.00193726
0.00248341
0.00304178
0.00359133
0.00410888
0.00457048
0.00495315
0.0052367
0.00540556
0.00545035
0.00536889
0.0051666
0.00485619
0.00445646
0.00399044
0.00348338
0.0029629
0.0024559
0.00195549
0.00143603
0.00246797
0.00155088
0.000912725
0.000445755
6.52535e-05
-0.000240683
-0.000483101
-0.000674955
-0.000825688
-0.000940963
-0.00102316
-0.00107168
-0.0010834
-0.00105326
-0.000974935
-0.000841694
-0.000647222
-0.000386557
-5.70061e-05
0.000340994
0.000803131
0.00132062
0.00188006
0.00246341
0.00304859
0.00361051
0.00412244
0.00455792
0.00489277
0.00510724
0.00518786
0.00512886
0.00493289
0.00461093
0.00418126
0.0036675
0.0030965
0.0024989
0.00190535
0.00130471
0.0006638
0.00244509
0.00142195
0.000716952
0.000206454
-0.000207816
-0.000541918
-0.000810336
-0.00102908
-0.00120967
-0.00135894
-0.00147972
-0.00157118
-0.00162941
-0.00164809
-0.00161921
-0.00153404
-0.00138401
-0.00116178
-0.000862259
-0.000483636
-2.82802e-05
0.000496495
0.00107805
0.0016983
0.00233409
0.00295816
0.00354059
0.00405069
0.00445933
0.00474136
0.00487796
0.00485851
0.00468185
0.00435648
0.00389987
0.00333646
0.00269545
0.00201167
0.00132101
0.000609165
-0.000164064
0.00223767
0.00111755
0.000350728
-0.000201297
-0.000649436
-0.00101373
-0.00131187
-0.00156263
-0.00177932
-0.00196972
-0.0021368
-0.00227932
-0.00239238
-0.00246817
-0.0024968
-0.00246728
-0.00236849
-0.00219038
-0.00192505
-0.00156798
-0.0011191
-0.00058376
2.66503e-05
0.000694323
0.00139525
0.00209999
0.002775
0.0033847
0.00389394
0.00427082
0.00448961
0.00453324
0.00439521
0.00408047
0.00360501
0.00299408
0.00227978
0.00150232
0.000704333
-0.00013096
-0.00105066
0.0018217
0.000614643
-0.000208248
-0.000799199
-0.00128081
-0.00167696
-0.00200835
-0.00229628
-0.0025556
-0.00279477
-0.00301677
-0.0032197
-0.00339751
-0.00354071
-0.00363733
-0.00367383
-0.00363626
-0.00351143
-0.00328814
-0.00295858
-0.00251957
-0.00197379
-0.00133069
-0.000607172
0.000172348
0.0009764
0.0017677
0.00250512
0.00314641
0.0036514
0.00398556
0.00412331
0.00405086
0.00376789
0.00328784
0.00263636
0.00184883
0.000971925
5.65905e-05
-0.000915978
-0.00200008
0.00117561
-0.000107366
-0.000979975
-0.00160688
-0.00212133
-0.00255086
-0.00291906
-0.00324948
-0.00355834
-0.0038546
-0.00414106
-0.00441508
-0.00466927
-0.00489235
-0.00507003
-0.00518603
-0.0052232
-0.00516474
-0.00499561
-0.00470399
-0.00428275
-0.003731
-0.00305527
-0.00227064
-0.00140118
-0.000479871
0.000452321
0.00134832
0.00215771
0.00283043
0.00332092
0.00359259
0.0036217
0.00340031
0.00293759
0.00225862
0.00140212
0.000422241
-0.000620076
-0.0017454
-0.00301584
0.000280644
-0.00106629
-0.00198177
-0.00264144
-0.00318797
-0.00365242
-0.00406106
-0.00443953
-0.00480524
-0.00516753
-0.00552895
-0.005886
-0.00622991
-0.00654749
-0.00682202
-0.00703421
-0.00716337
-0.00718867
-0.00709057
-0.00685241
-0.00646218
-0.00591424
-0.00521099
-0.00436444
-0.00339715
-0.00234273
-0.00124534
-0.000158114
0.000859528
0.00174591
0.00244207
0.00289729
0.00307453
0.00295505
0.00254105
0.00185543
0.00093975
-0.000143488
-0.00132155
-0.00261661
-0.00409936
-0.000878683
-0.00227677
-0.00322787
-0.00391693
-0.00449474
-0.00499564
-0.00544842
-0.00588065
-0.00631079
-0.00674853
-0.00719614
-0.00764925
-0.00809772
-0.00852641
-0.00891606
-0.00924423
-0.00948641
-0.00961724
-0.00961202
-0.00944844
-0.00910845
-0.00858036
-0.00786098
-0.00695761
-0.00588974
-0.00469021
-0.00340534
-0.00209402
-0.000825111
0.000326603
0.00128614
0.00198515
0.00236918
0.00240434
0.00208213
0.00142056
0.000462818
-0.000719694
-0.00204057
-0.00352342
-0.00524838
-0.00231411
-0.00374983
-0.00472899
-0.00544396
-0.00605212
-0.00659088
-0.00709139
-0.00758298
-0.00808513
-0.00860788
-0.00915324
-0.0097161
-0.010285
-0.0108429
-0.011368
-0.0118347
-0.0122143
-0.0124765
-0.012591
-0.0125288
-0.0122647
-0.0117795
-0.0110627
-0.010115
-0.00895072
-0.00760004
-0.00610981
-0.00454356
-0.00297953
-0.00150665
-0.00021839
0.000795426
0.00145797
0.0017148
0.00154148
0.000947019
-2.60853e-05
-0.00129755
-0.00276542
-0.00445455
-0.00645528
-0.00403314
-0.00549253
-0.00649199
-0.00722923
-0.0078666
-0.00844429
-0.00899568
-0.00955173
-0.0101329
-0.0107498
-0.0114042
-0.0120904
-0.0127959
-0.0135019
-0.0141841
-0.0148137
-0.0153577
-0.0157808
-0.0160461
-0.0161174
-0.0159611
-0.0155491
-0.0148616
-0.0138906
-0.0126429
-0.0111433
-0.0094369
-0.00758993
-0.00568899
-0.00383752
-0.00214947
-0.000739963
0.000286242
0.000847459
0.000896435
0.000427235
-0.000522256
-0.00186387
-0.00347843
-0.0053918
-0.00770513
-0.00603863
-0.00750771
-0.00851966
-0.00927534
-0.00994034
-0.0105573
-0.0111618
-0.0117863
-0.0124524
-0.0131712
-0.0139448
-0.014767
-0.0156246
-0.0164971
-0.0173582
-0.0181757
-0.0189127
-0.0195282
-0.0199787
-0.02022
-0.020209
-0.0199073
-0.0192841
-0.0183201
-0.0170119
-0.015376
-0.0134525
-0.0113075
-0.00903373
-0.00674841
-0.00458697
-0.00269329
-0.00120581
-0.000241243
0.000121614
-0.000146346
-0.00101795
-0.00239971
-0.00415412
-0.00630792
-0.00897335
-0.00832859
-0.00979384
-0.0108106
-0.0115806
-0.012271
-0.0129265
-0.0135846
-0.0142796
-0.0150343
-0.0158606
-0.0167612
-0.0177299
-0.0187529
-0.0198088
-0.020869
-0.0218988
-0.0228569
-0.0236969
-0.0243686
-0.0248189
-0.0249948
-0.0248462
-0.0243294
-0.0234119
-0.0220769
-0.0203292
-0.0182
-0.0157515
-0.0130793
-0.0103118
-0.00760554
-0.00513549
-0.00307923
-0.00159694
-0.000809479
-0.000779988
-0.00150101
-0.00287856
-0.00475697
-0.007164
-0.0102229
-0.0108961
-0.0123452
-0.0133595
-0.0141394
-0.0148517
-0.0155431
-0.0162531
-0.0170176
-0.0178613
-0.0187973
-0.0198291
-0.0209511
-0.0221494
-0.0234018
-0.0246786
-0.0259419
-0.027147
-0.0282422
-0.0291701
-0.0298689
-0.0302751
-0.0303258
-0.0299631
-0.029139
-0.0278208
-0.0259981
-0.0236888
-0.0209465
-0.0178646
-0.0145788
-0.0112644
-0.00812771
-0.00538982
-0.00326275
-0.00192132
-0.00147637
-0.00195272
-0.00326402
-0.00523863
-0.00790626
-0.0114006
-0.0137297
-0.0151521
-0.0161575
-0.0169423
-0.0176716
-0.0183937
-0.0191503
-0.0199795
-0.020908
-0.0219507
-0.0231128
-0.0243897
-0.025768
-0.0272253
-0.0287306
-0.0302442
-0.0317177
-0.0330944
-0.0343102
-0.0352946
-0.0359729
-0.0362695
-0.0361111
-0.0354326
-0.034183
-0.0323331
-0.0298835
-0.0268736
-0.0233887
-0.0195658
-0.0155944
-0.0117099
-0.00817876
-0.00527209
-0.00323121
-0.00223085
-0.0023447
-0.00350661
-0.00553436
-0.00846212
-0.0124334
-0.0168136
-0.018202
-0.019193
-0.0199772
-0.0207163
-0.0214604
-0.0222537
-0.0231372
-0.0241402
-0.0252806
-0.0265655
-0.0279921
-0.0295482
-0.0312117
-0.032951
-0.0347247
-0.0364812
-0.0381594
-0.0396885
-0.0409898
-0.0419778
-0.0425636
-0.0426583
-0.0421784
-0.0410536
-0.0392326
-0.0366948
-0.0334597
-0.0295981
-0.0252408
-0.0205839
-0.015887
-0.0114603
-0.0076387
-0.00474169
-0.00302585
-0.00263449
-0.00353962
-0.00555867
-0.00873545
-0.0132227
-0.0201291
-0.0214803
-0.022453
-0.02323
-0.023969
-0.0247219
-0.0255361
-0.0264564
-0.0275161
-0.0287369
-0.030129
-0.0316921
-0.0334157
-0.0352786
-0.037249
-0.0392841
-0.0413298
-0.0433207
-0.0451801
-0.0468211
-0.048148
-0.0490591
-0.0494498
-0.0492178
-0.048274
-0.0465415
-0.0439753
-0.0405708
-0.0363772
-0.0315107
-0.0261646
-0.020614
-0.0152074
-0.010344
-0.00643036
-0.00382305
-0.00275945
-0.0032738
-0.00519993
-0.0086008
-0.0136386
-0.0236556
-0.0249722
-0.0259247
-0.0266869
-0.027412
-0.0281543
-0.0289658
-0.0298968
-0.0309863
-0.0322609
-0.0337352
-0.0354124
-0.037284
-0.0393303
-0.0415196
-0.0438081
-0.0461394
-0.0484441
-0.0506401
-0.0526329
-0.0543171
-0.0555789
-0.0562991
-0.056359
-0.0556426
-0.0540545
-0.0515217
-0.0480109
-0.0435439
-0.0382136
-0.0322002
-0.0257823
-0.019337
-0.0133226
-0.00823729
-0.00455336
-0.00262882
-0.00259058
-0.00431371
-0.00789646
-0.0135129
-0.0273725
-0.0286649
-0.0295979
-0.0303357
-0.0310279
-0.0317324
-0.0325082
-0.0334135
-0.034495
-0.0357862
-0.0373074
-0.0390661
-0.0410568
-0.0432611
-0.0456478
-0.0481722
-0.0507754
-0.0533844
-0.0559119
-0.0582564
-0.0603035
-0.0619279
-0.0629966
-0.0633734
-0.0629242
-0.0615276
-0.0590837
-0.055529
-0.050853
-0.0451183
-0.0384811
-0.0312102
-0.023697
-0.0164483
-0.0100511
-0.00510476
-0.0021138
-0.00133357
-0.0027148
-0.00641632
-0.0126302
-0.0312618
-0.0325506
-0.0334679
-0.0341689
-0.034802
-0.0354315
-0.0361267
-0.0369571
-0.0379805
-0.0392396
-0.0407619
-0.0425598
-0.0446312
-0.0469595
-0.0495134
-0.0522471
-0.0550993
-0.0579932
-0.0608361
-0.0635199
-0.0659218
-0.0679061
-0.0693267
-0.0700319
-0.0698692
-0.0686943
-0.0663805
-0.0628336
-0.0580086
-0.0519322
-0.0447274
-0.0366397
-0.0280581
-0.0195214
-0.0116952
-0.00530898
-0.00103591
0.000701434
-0.000167572
-0.00389995
-0.0107189
-0.0353115
-0.0366307
-0.0375396
-0.0381866
-0.0387244
-0.0392284
-0.0397833
-0.0404753
-0.0413769
-0.042543
-0.0440097
-0.0457955
-0.0479015
-0.0503124
-0.0529965
-0.055906
-0.0589767
-0.0621275
-0.0652603
-0.0682602
-0.0709961
-0.0733226
-0.0750819
-0.0761078
-0.0762306
-0.0752861
-0.073122
-0.0696143
-0.0646838
-0.0583185
-0.0506015
-0.0417433
-0.0321137
-0.0222628
-0.0129166
-0.00492839
0.00084584
0.00377841
0.00362557
-2.08041e-05
-0.0074389
-0.0395208
-0.0409222
-0.0418328
-0.0424005
-0.0427925
-0.0431027
-0.0434394
-0.0439124
-0.0446142
-0.0456143
-0.0469596
-0.0486745
-0.0507631
-0.0532103
-0.0559831
-0.0590308
-0.0622847
-0.0656588
-0.0690488
-0.0723326
-0.075371
-0.0780091
-0.0800779
-0.0813982
-0.0817853
-0.0810541
-0.0790319
-0.0755668
-0.0705467
-0.063921
-0.0557301
-0.0461412
-0.0354895
-0.024315
-0.0133804
-0.00364534
0.00384797
0.0082344
0.00903801
0.00562855
-0.00236793
-0.0439074
-0.0454659
-0.0463898
-0.0468389
-0.0470131
-0.0470376
-0.0470559
-0.0472102
-0.0476187
-0.0483692
-0.0495196
-0.0511001
-0.0531165
-0.0555525
-0.0583716
-0.0615185
-0.0649189
-0.0684801
-0.0720906
-0.0756206
-0.0789222
-0.0818306
-0.0841662
-0.0857373
-0.0863445
-0.0857866
-0.0838695
-0.0804171
-0.0752874
-0.0683936
-0.0597335
-0.0494272
-0.0377645
-0.0252555
-0.0126727
-0.00105673
0.00837381
0.0144941
0.0165358
0.0135555
0.00501763
-0.0485199
-0.0503404
-0.0512858
-0.0515528
-0.0514054
-0.0510205
-0.0505922
-0.0503068
-0.0503141
-0.0507221
-0.0515998
-0.0529815
-0.0548721
-0.0572516
-0.0600775
-0.0632873
-0.066799
-0.0705118
-0.0743055
-0.0780414
-0.081562
-0.0846925
-0.0872421
-0.0890068
-0.0897732
-0.0893243
-0.0874472
-0.0839434
-0.0786441
-0.0714299
-0.0622586
-0.0512033
-0.0385023
-0.0246211
-0.0103161
0.0033224
0.0149205
0.023085
0.0266984
0.0243935
0.0153697
-0.053459
-0.0556834
-0.056645
-0.0566244
-0.0560036
-0.055042
-0.0540055
-0.0531362
-0.0526209
-0.0525881
-0.0531153
-0.0542374
-0.0559544
-0.0582385
-0.061038
-0.0642803
-0.0678732
-0.0717059
-0.0756474
-0.079549
-0.0832429
-0.0865431
-0.0892471
-0.0911382
-0.0919891
-0.0915669
-0.0896405
-0.0859908
-0.0804238
-0.0727906
-0.0630125
-0.0511178
-0.0372921
-0.0219465
-0.00579938
0.0100416
0.0240774
0.0346502
0.0402454
0.0389399
0.0295118
-0.0589151
-0.061727
-0.0626627
-0.0621765
-0.0608585
-0.0590948
-0.0572478
-0.0556269
-0.0544574
-0.0538848
-0.0539893
-0.0547997
-0.0563055
-0.0584659
-0.0612158
-0.0644689
-0.0681202
-0.072046
-0.0761041
-0.0801338
-0.0839557
-0.0873719
-0.0901676
-0.0921126
-0.0929647
-0.0924748
-0.0903932
-0.0864798
-0.0805165
-0.0723257
-0.0617941
-0.0489071
-0.0337979
-0.0168168
0.00137295
0.0196778
0.0365086
0.0499568
0.0580688
0.0582123
0.0485142
-0.0652386
-0.068856
-0.0696391
-0.0683852
-0.0660378
-0.0631692
-0.0602623
-0.0576995
-0.0557391
-0.0545336
-0.054155
-0.0546164
-0.0558885
-0.057911
-0.0606003
-0.0638528
-0.0675479
-0.0715473
-0.0756956
-0.0798191
-0.0837259
-0.0872057
-0.0900302
-0.0919551
-0.0927228
-0.0920665
-0.0897171
-0.0854118
-0.0789068
-0.0699941
-0.0585243
-0.0444387
-0.0278151
-0.00893538
0.0116088
0.0327704
0.05291
0.0698892
0.0812718
0.0835337
0.0738299
-0.0730762
-0.0777047
-0.0780248
-0.0754899
-0.0716211
-0.067244
-0.0629752
-0.0592616
-0.0563764
-0.0544593
-0.0535567
-0.0536525
-0.0546874
-0.0565746
-0.0592063
-0.0624584
-0.0661916
-0.0702518
-0.074469
-0.0786562
-0.0826084
-0.0861022
-0.0888961
-0.090731
-0.0913331
-0.0904173
-0.0876931
-0.0828729
-0.0756839
-0.0658829
-0.0532781
-0.0377586
-0.0193364
0.00178835
0.0251247
0.049713
0.0739204
0.0954098
0.111205
0.116665
0.107557
-0.0836456
-0.0893167
-0.088473
-0.0837905
-0.077678
-0.0712626
-0.0652758
-0.0601931
-0.0562643
-0.0535827
-0.0521443
-0.0518845
-0.0527028
-0.0544767
-0.0570694
-0.0603328
-0.0641076
-0.0682227
-0.0724934
-0.0767192
-0.0806824
-0.0841472
-0.0868588
-0.0885439
-0.0889126
-0.0876612
-0.0844767
-0.0790445
-0.071058
-0.0602321
-0.0463218
-0.0291481
-0.00863502
0.0151313
0.0418013
0.0705756
0.0999374
0.127425
0.149461
0.160011
0.152953
-0.0993137
-0.105395
-0.101856
-0.0935815
-0.0841892
-0.0750621
-0.0669586
-0.060301
-0.0552469
-0.0517933
-0.0498503
-0.0492832
-0.0499358
-0.0516425
-0.054233
-0.0575331
-0.0613633
-0.065536
-0.0698524
-0.0740997
-0.0780491
-0.0814534
-0.0840462
-0.0855415
-0.0856343
-0.0840037
-0.0803138
-0.0742228
-0.065386
-0.0534686
-0.0381589
-0.0191877
0.00364337
0.0304136
0.0609941
0.0948622
0.130784
0.166456
0.197712
0.216846
0.215267
-0.124755
-0.128659
-0.119167
-0.104953
-0.0908527
-0.0782095
-0.0675954
-0.0592236
-0.0530489
-0.0488989
-0.0465543
-0.0457853
-0.046367
-0.0480849
-0.0507338
-0.0541145
-0.0580286
-0.0622743
-0.0666414
-0.0709075
-0.074835
-0.0781682
-0.080632
-0.0819302
-0.0817466
-0.0797464
-0.0755657
-0.0688449
-0.0591987
-0.0462361
-0.0295669
-0.0088074
0.0164055
0.046388
0.0813462
0.121222
0.165394
0.212133
0.257268
0.29127
0.302516
-0.169205
-0.163131
-0.141275
-0.117549
-0.0968654
-0.0798348
-0.0664353
-0.0563883
-0.0492704
-0.0446435
-0.0421104
-0.0413249
-0.0419871
-0.0438345
-0.0466311
-0.0501576
-0.0542023
-0.058554
-0.0629956
-0.0672993
-0.0712226
-0.0745053
-0.0768671
-0.0780066
-0.0776019
-0.0753164
-0.0707342
-0.063508
-0.0532104
-0.0393947
-0.0215871
0.00072648
0.0281127
0.0612039
0.100693
0.147262
0.201411
0.262869
0.328243
0.387673
0.427062
-0.253609
-0.212997
-0.167112
-0.129314
-0.10008
-0.0781258
-0.0621584
-0.0509231
-0.0433759
-0.0387233
-0.0363674
-0.0358489
-0.0368058
-0.0389426
-0.0420061
-0.0457687
-0.0500146
-0.0545311
-0.0591006
-0.0634953
-0.0674729
-0.0707731
-0.0731153
-0.0741963
-0.073687
-0.0712276
-0.0664861
-0.0590031
-0.0483487
-0.0340424
-0.0155385
0.00779808
0.0367396
0.0722737
0.115712
0.168815
0.233931
0.313575
0.407291
0.510212
0.61752
-0.437976
-0.276145
-0.182382
-0.127993
-0.0916283
-0.0669331
-0.0506081
-0.0400244
-0.0334239
-0.0297333
-0.0282584
-0.028512
-0.0301324
-0.0328354
-0.0363826
-0.0405598
-0.0451634
-0.0499908
-0.054833
-0.0594696
-0.0636648
-0.0671639
-0.0696917
-0.0709496
-0.0706144
-0.0683308
-0.0637411
-0.0564152
-0.0459068
-0.0317165
-0.0132654
0.0101442
0.0394042
0.0757404
0.120965
0.177933
0.251357
0.348527
0.478311
0.660994
0.939887
-0.805548
-0.338339
-0.154448
-0.0907376
-0.0576837
-0.0377273
-0.0262838
-0.019963
-0.016739
-0.0156396
-0.0161568
-0.0179634
-0.0208181
-0.0245249
-0.0289094
-0.0338039
-0.0390391
-0.0444381
-0.0498123
-0.0549576
-0.059652
-0.0636526
-0.0666945
-0.0684888
-0.0687238
-0.0670692
-0.0631373
-0.0565339
-0.0468227
-0.0335157
-0.0160528
0.0062365
0.0342055
0.0690305
0.1125
0.167667
0.240497
0.343887
0.506466
0.810225
1.40137
)
;

boundaryField
{
    movingWall
    {
        type            zeroGradient;
    }
    fixedWalls
    {
        type            zeroGradient;
    }
    frontAndBack
    {
        type            empty;
    }
}


// ************************************************************************* //
