/*--------------------------------*- C++ -*----------------------------------*\
| =========                 |                                                 |
| \\      /  F ield         | OpenFOAM: The Open Source CFD Toolbox           |
|  \\    /   O peration     | Version:  2.1.1                                 |
|   \\  /    A nd           | Web:      www.OpenFOAM.org                      |
|    \\/     M anipulation  |                                                 |
\*---------------------------------------------------------------------------*/
FoamFile
{
    version     2.0;
    format      ascii;
    class       volScalarField;
    location    "0.6";
    object      p;
}
// * * * * * * * * * * * * * * * * * * * * * * * * * * * * * * * * * * * * * //

dimensions      [0 2 -2 0 0 0 0];

internalField   nonuniform List<scalar> 
25921
(
6.22827e-11
1.18507e-05
1.28189e-05
-2.36959e-06
-3.41513e-05
-8.16841e-05
-0.000143417
-0.000217483
-0.000301974
-0.000395063
-0.000495051
-0.000600382
-0.000709643
-0.000821564
-0.000935002
-0.00104894
-0.00116247
-0.00127477
-0.00138515
-0.00149296
-0.00159764
-0.00169872
-0.00179576
-0.00188838
-0.00197628
-0.00205915
-0.00213677
-0.00220893
-0.00227545
-0.00233618
-0.00239099
-0.00243978
-0.00248246
-0.00251896
-0.00254921
-0.00257317
-0.0025908
-0.00260206
-0.00260693
-0.00260539
-0.00259742
-0.00258301
-0.00256215
-0.00253484
-0.00250108
-0.00246085
-0.00241418
-0.00236105
-0.00230148
-0.00223547
-0.00216305
-0.00208423
-0.00199903
-0.00190748
-0.0018096
-0.00170544
-0.00159504
-0.00147846
-0.00135574
-0.00122697
-0.00109222
-0.000951571
-0.000805128
-0.000652999
-0.000495307
-0.000332184
-0.00016378
9.74586e-06
0.000188217
0.000371443
0.000559221
0.000751328
0.000947531
0.00114758
0.0013512
0.00155812
0.00176803
0.00198062
0.00219557
0.00241253
0.00263113
0.00285102
0.00307179
0.00329306
0.00351442
0.00373543
0.00395568
0.00417473
0.00439212
0.0046074
0.00482012
0.00502981
0.00523602
0.00543827
0.00563611
0.00582908
0.00601671
0.00619858
0.00637423
0.00654324
0.00670518
0.00685967
0.00700632
0.00714474
0.00727461
0.00739559
0.00750737
0.00760968
0.00770226
0.0077849
0.00785739
0.00791958
0.00797133
0.00801255
0.00804317
0.00806316
0.00807254
0.00807135
0.00805967
0.00803762
0.00800537
0.0079631
0.00791106
0.00784951
0.00777876
0.00769917
0.00761112
0.00751503
0.00741136
0.0073006
0.00718326
0.00705993
0.00693117
0.00679763
0.00665994
0.00651879
0.0063749
0.006229
0.00608186
0.00593427
0.00578706
0.00564106
0.00549714
0.0053562
0.00521914
0.00508692
0.00496048
0.00484081
0.00472889
0.00462573
0.00453233
0.00444969
0.00437877
0.00432045
0.00427549
0.00424441
0.00422732
0.00422358
0.00423128
0.00424659
0.0042624
-1.18492e-05
1.36506e-08
-1.32914e-06
-1.72789e-05
-4.70483e-05
-9.01552e-05
-0.00014561
-0.000212045
-0.000287969
-0.000371892
-0.000462373
-0.000558055
-0.000657678
-0.000760087
-0.000864228
-0.000969148
-0.00107399
-0.00117797
-0.00128041
-0.0013807
-0.00147827
-0.00157266
-0.00166343
-0.00175021
-0.00183266
-0.00191051
-0.0019835
-0.00205141
-0.00211406
-0.00217128
-0.00222294
-0.00226892
-0.00230913
-0.00234347
-0.00237188
-0.00239429
-0.00241066
-0.00242095
-0.00242512
-0.00242315
-0.00241501
-0.00240069
-0.00238017
-0.00235344
-0.0023205
-0.00228134
-0.00223596
-0.00218437
-0.00212657
-0.00206256
-0.00199237
-0.00191601
-0.0018335
-0.00174487
-0.00165015
-0.00154938
-0.0014426
-0.00132987
-0.00121124
-0.00108678
-0.000956577
-0.00082071
-0.000679279
-0.000532393
-0.00038017
-0.000222745
-6.02611e-05
0.000107123
0.000279236
0.000455893
0.000636894
0.000822025
0.00101106
0.00120375
0.00139983
0.00159905
0.0018011
0.00200568
0.00221248
0.00242117
0.0026314
0.00284281
0.00305504
0.00326769
0.00348038
0.0036927
0.00390425
0.0041146
0.00432332
0.00452998
0.00473414
0.00493537
0.00513322
0.00532724
0.00551701
0.00570208
0.00588202
0.00605641
0.00622483
0.00638686
0.00654213
0.00669024
0.00683084
0.00696356
0.00708809
0.00720412
0.00731136
0.00740954
0.00749844
0.00757785
0.00764757
0.00770747
0.00775742
0.00779733
0.00782715
0.00784686
0.00785647
0.00785603
0.00784563
0.00782538
0.00779544
0.00775601
0.00770731
0.0076496
0.00758321
0.00750844
0.00742569
0.00733536
0.00723788
0.00713373
0.00702342
0.00690748
0.00678648
0.00666102
0.00653172
0.00639923
0.00626424
0.00612745
0.00598959
0.00585141
0.00571369
0.00557722
0.00544283
0.00531135
0.00518364
0.00506056
0.004943
0.00483185
0.00472799
0.00463233
0.00454573
0.00446903
0.00440302
0.00434835
0.00430557
0.00427494
0.00425636
0.00424912
0.00425168
0.0042624
0.0042782
-1.28348e-05
1.37011e-06
2.61923e-08
-1.58214e-05
-4.41349e-05
-8.4355e-05
-0.000135668
-0.000196929
-0.000266891
-0.00034428
-0.000427844
-0.000516382
-0.000608761
-0.000703925
-0.000800904
-0.000898806
-0.000996821
-0.00109422
-0.00119033
-0.00128457
-0.0013764
-0.00146536
-0.00155101
-0.00163299
-0.00171096
-0.00178465
-0.00185378
-0.00191815
-0.00197756
-0.00203185
-0.00208086
-0.00212447
-0.00216258
-0.0021951
-0.00222194
-0.00224305
-0.00225836
-0.00226783
-0.00227141
-0.00226909
-0.00226082
-0.00224659
-0.00222637
-0.00220017
-0.00216796
-0.00212974
-0.0020855
-0.00203526
-0.00197901
-0.00191675
-0.00184851
-0.0017743
-0.00169414
-0.00160805
-0.00151608
-0.00141824
-0.0013146
-0.0012052
-0.0010901
-0.000969365
-0.000843079
-0.000711324
-0.000574197
-0.000431805
-0.000284266
-0.00013171
2.57211e-05
0.000187873
0.000354578
0.000525655
0.000700909
0.000880132
0.0010631
0.00124958
0.00143932
0.00163204
0.00182749
0.00202535
0.00222532
0.00242709
0.00263031
0.00283465
0.00303974
0.00324522
0.0034507
0.0036558
0.00386012
0.00406325
0.00426479
0.00446432
0.00466141
0.00485564
0.0050466
0.00523385
0.00541696
0.00559554
0.00576915
0.00593739
0.00609986
0.00625618
0.00640596
0.00654884
0.00668447
0.00681252
0.00693268
0.00704465
0.00714816
0.00724297
0.00732884
0.00740559
0.00747303
0.00753104
0.00757949
0.00761831
0.00764745
0.0076669
0.00767666
0.0076768
0.00766739
0.00764856
0.00762046
0.00758328
0.00753724
0.00748261
0.00741968
0.00734878
0.00727027
0.00718453
0.00709201
0.00699315
0.00688845
0.00677843
0.00666363
0.00654462
0.00642201
0.00629643
0.00616853
0.00603899
0.0059085
0.00577778
0.00564757
0.00551864
0.00539175
0.00526769
0.00514727
0.00503131
0.00492061
0.00481601
0.00471831
0.00462833
0.00454682
0.00447454
0.00441214
0.00436018
0.00431908
0.00428905
0.00427003
0.00426146
0.00426235
0.0042731
0.00429353
2.34752e-06
1.73509e-05
1.58725e-05
-2.08934e-08
-2.76116e-05
-6.61716e-05
-0.000114899
-0.000172743
-0.000238589
-0.00031131
-0.00038979
-0.000472952
-0.00055977
-0.00064928
-0.000740584
-0.000832855
-0.000925333
-0.00101733
-0.00110821
-0.0011974
-0.00128441
-0.00136876
-0.00145006
-0.00152792
-0.00160204
-0.00167212
-0.00173791
-0.00179919
-0.00185577
-0.00190747
-0.00195414
-0.00199566
-0.00203192
-0.00206282
-0.00208828
-0.00210823
-0.0021226
-0.00213135
-0.00213442
-0.0021318
-0.00212343
-0.00210931
-0.0020894
-0.0020637
-0.00203218
-0.00199484
-0.00195168
-0.00190269
-0.00184788
-0.00178725
-0.00172082
-0.00164859
-0.0015706
-0.00148686
-0.0013974
-0.00130227
-0.0012015
-0.00109515
-0.000983274
-0.00086594
-0.000743222
-0.000615206
-0.000481985
-0.000343664
-0.00020036
-5.21987e-05
0.000100681
0.000258127
0.000419977
0.000586054
0.000756167
0.000930115
0.00110768
0.00128863
0.00147273
0.0016597
0.0018493
0.00204121
0.00223516
0.00243083
0.00262789
0.00282602
0.00302485
0.00322404
0.00342322
0.00362201
0.00382003
0.00401689
0.00421218
0.0044055
0.00459646
0.00478463
0.00496961
0.005151
0.00532837
0.00550133
0.00566948
0.00583242
0.00598978
0.00614117
0.00628623
0.00642461
0.00655598
0.00668001
0.00679641
0.0069049
0.00700521
0.0070971
0.00718037
0.00725482
0.0073203
0.00737667
0.00742382
0.00746168
0.0074902
0.00750938
0.00751924
0.00751982
0.00751121
0.00749353
0.00746694
0.00743162
0.00738779
0.00733571
0.00727566
0.00720796
0.00713296
0.00705106
0.00696266
0.0068682
0.00676817
0.00666306
0.00655341
0.00643976
0.00632271
0.00620285
0.00608082
0.00595726
0.00583284
0.00570827
0.00558423
0.00546145
0.00534068
0.00522265
0.00510813
0.00499788
0.00489267
0.00479326
0.0047004
0.00461483
0.00453726
0.00446834
0.00440869
0.00435879
0.00431906
0.00428974
0.00427089
0.00426219
0.00426317
0.0042757
0.00430132
3.42128e-05
4.72333e-05
4.42341e-05
2.74749e-05
-2.19231e-07
-3.80232e-05
-8.51354e-05
-0.000140578
-0.000203339
-0.000272409
-0.000346789
-0.000425511
-0.000507645
-0.000592313
-0.000678692
-0.000766017
-0.00085358
-0.000940733
-0.00102688
-0.0011115
-0.00119408
-0.0012742
-0.00135145
-0.00142549
-0.001496
-0.0015627
-0.00162533
-0.00168369
-0.00173758
-0.00178682
-0.00183127
-0.00187079
-0.00190528
-0.00193464
-0.00195877
-0.00197761
-0.00199109
-0.00199916
-0.00200176
-0.00199887
-0.00199044
-0.00197644
-0.00195686
-0.00193168
-0.00190087
-0.00186443
-0.00182235
-0.00177463
-0.00172127
-0.00166227
-0.00159765
-0.00152741
-0.00145158
-0.00137018
-0.00128324
-0.00119079
-0.00109288
-0.000989553
-0.00088087
-0.000766894
-0.000647698
-0.000523366
-0.000393988
-0.000259668
-0.000120517
2.33397e-05
0.000171768
0.00032462
0.000481736
0.000642946
0.000808064
0.000976893
0.00114922
0.00132483
0.00150347
0.0016849
0.00186886
0.00205506
0.00224322
0.00243304
0.0026242
0.00281638
0.00300924
0.00320243
0.00339561
0.0035884
0.00378042
0.00397131
0.00416068
0.00434813
0.00453328
0.00471572
0.00489506
0.00507091
0.00524287
0.00541054
0.00557355
0.00573151
0.00588405
0.00603081
0.00617144
0.0063056
0.00643297
0.00655324
0.00666611
0.00677133
0.00686863
0.00695779
0.00703861
0.00711091
0.00717453
0.00722934
0.00727525
0.00731219
0.00734011
0.00735901
0.00736891
0.00736986
0.00736195
0.0073453
0.00732006
0.00728642
0.00724458
0.0071948
0.00713736
0.00707257
0.00700077
0.00692235
0.00683769
0.00674723
0.00665144
0.0065508
0.00644581
0.00633703
0.00622501
0.00611034
0.00599361
0.00587546
0.00575653
0.00563747
0.00551897
0.00540171
0.0052864
0.00517374
0.00506443
0.00495922
0.00485882
0.00476392
0.00467525
0.00459347
0.00451924
0.00445316
0.0043958
0.00434763
0.00430906
0.00428039
0.00426182
0.00425324
0.00425456
0.0042686
0.00429785
8.20318e-05
9.06223e-05
8.46249e-05
6.60058e-05
3.72847e-05
-6.88084e-07
-4.71255e-05
-0.000101121
-0.000161757
-0.000228125
-0.000299327
-0.000374492
-0.000452779
-0.000533392
-0.000615577
-0.000698631
-0.000781901
-0.000864783
-0.000946724
-0.00102722
-0.0011058
-0.00118206
-0.00125562
-0.00132614
-0.00139331
-0.00145687
-0.00151657
-0.00157219
-0.00162355
-0.00167049
-0.00171284
-0.00175048
-0.0017833
-0.0018112
-0.00183408
-0.00185188
-0.00186453
-0.00187197
-0.00187414
-0.00187102
-0.00186256
-0.00184872
-0.00182949
-0.00180485
-0.00177477
-0.00173924
-0.00169826
-0.00165182
-0.00159991
-0.00154254
-0.00147973
-0.00141147
-0.00133779
-0.00125871
-0.00117426
-0.00108446
-0.000989374
-0.000889031
-0.000783491
-0.000672816
-0.000557078
-0.000436355
-0.000310739
-0.000180326
-4.52272e-05
9.44378e-05
0.000238538
0.00038693
0.000539459
0.000695959
0.00085625
0.00102014
0.00118743
0.00135789
0.0015313
0.00170741
0.00188597
0.00206672
0.00224935
0.0024336
0.00261914
0.00280567
0.00299286
0.00318037
0.00336786
0.00355497
0.00374135
0.00392662
0.0041104
0.00429233
0.00447202
0.00464908
0.00482314
0.0049938
0.00516069
0.00532343
0.00548163
0.00563494
0.00578299
0.00592544
0.00606194
0.00619217
0.00631581
0.00643257
0.00654217
0.00664434
0.00673884
0.00682546
0.006904
0.00697428
0.00703616
0.00708951
0.00713425
0.0071703
0.00719763
0.00721624
0.00722615
0.0072274
0.0072201
0.00720435
0.0071803
0.00714814
0.00710808
0.00706036
0.00700526
0.00694307
0.00687414
0.00679883
0.00671753
0.00663067
0.00653868
0.00644204
0.00634125
0.00623682
0.00612931
0.00601926
0.00590728
0.00579395
0.00567989
0.00556574
0.00545214
0.00533975
0.00522924
0.00512127
0.00501653
0.00491568
0.00481942
0.00472839
0.00464326
0.00456466
0.00449319
0.00442943
0.00437391
0.00432709
0.00428939
0.00426118
0.00424276
0.00423418
0.00423559
0.00425033
0.00428132
0.000144388
0.000146632
0.000136315
0.000114844
8.41686e-05
4.51155e-05
-1.55649e-06
-5.5019e-05
-0.000114443
-0.000179009
-0.000247913
-0.00032037
-0.000395622
-0.000472948
-0.000551661
-0.000631119
-0.00071072
-0.000789908
-0.000868169
-0.00094503
-0.00102006
-0.00109287
-0.00116309
-0.00123042
-0.00129455
-0.00135523
-0.00141223
-0.00146534
-0.00151437
-0.00155916
-0.00159956
-0.00163546
-0.00166673
-0.00169327
-0.001715
-0.00173184
-0.00174372
-0.00175059
-0.00175239
-0.00174909
-0.00174063
-0.00172699
-0.00170814
-0.00168406
-0.00165473
-0.00162012
-0.00158024
-0.00153508
-0.00148463
-0.00142888
-0.00136786
-0.00130157
-0.00123001
-0.00115322
-0.00107122
-0.000984044
-0.000891723
-0.000794304
-0.00069184
-0.000584391
-0.000472026
-0.000354819
-0.000232859
-0.00010624
2.49327e-05
0.000160542
0.000300462
0.000444553
0.000592667
0.000744641
0.000900302
0.00105946
0.00122193
0.00138748
0.0015559
0.00172696
0.0019004
0.00207596
0.00225336
0.00243234
0.00261258
0.00279379
0.00297564
0.00315782
0.00333997
0.00352177
0.00370285
0.00388287
0.00406145
0.00423823
0.00441284
0.0045849
0.00475405
0.00491991
0.0050821
0.00524026
0.00539403
0.00554304
0.00568695
0.00582542
0.00595812
0.00608472
0.00620494
0.00631847
0.00642504
0.00652441
0.00661634
0.00670062
0.00677705
0.00684547
0.00690574
0.00695773
0.00700137
0.00703659
0.00706336
0.00708166
0.00709153
0.00709302
0.00708622
0.00707124
0.00704823
0.00701736
0.00697886
0.00693295
0.0068799
0.00682001
0.00675361
0.00668105
0.00660271
0.00651901
0.00643038
0.00633727
0.00624017
0.00613958
0.00603603
0.00593005
0.00582222
0.00571311
0.00560331
0.00549343
0.00538409
0.00527591
0.00516953
0.00506559
0.00496473
0.00486758
0.00477479
0.00468697
0.00460475
0.00452872
0.00445945
0.00439748
0.00434332
0.00429744
0.00426026
0.00423219
0.00421361
0.0042047
0.00420574
0.00422022
0.00425114
0.000219558
0.000214002
0.000198249
0.000173016
0.000139524
9.85472e-05
5.08088e-05
-2.94804e-06
-6.19813e-05
-0.000125558
-0.000192956
-0.000263473
-0.000336427
-0.000411166
-0.000487071
-0.000563555
-0.00064007
-0.000716104
-0.000791184
-0.000864873
-0.000936769
-0.00100651
-0.00107375
-0.0011382
-0.00119959
-0.00125766
-0.00131219
-0.00136299
-0.00140988
-0.0014527
-0.00149132
-0.0015256
-0.00155544
-0.00158073
-0.0016014
-0.00161737
-0.00162857
-0.00163493
-0.00163642
-0.00163298
-0.00162458
-0.00161117
-0.00159273
-0.00156924
-0.00154068
-0.00150702
-0.00146825
-0.00142437
-0.00137537
-0.00132125
-0.00126201
-0.00119766
-0.00112822
-0.00105369
-0.00097411
-0.000889502
-0.000799902
-0.000705352
-0.000605901
-0.000501606
-0.000392531
-0.000278751
-0.000160347
-3.74114e-05
8.9955e-05
0.00022164
0.000357521
0.000497466
0.000641328
0.000788953
0.000940171
0.0010948
0.00125266
0.00141353
0.0015772
0.00174344
0.00191201
0.00208266
0.00225513
0.00242912
0.00260437
0.00278056
0.0029574
0.00313456
0.00331172
0.00348854
0.00366469
0.0038398
0.00401353
0.00418553
0.00435542
0.00452285
0.00468745
0.00484886
0.00500672
0.00516066
0.00531033
0.00545539
0.00559549
0.0057303
0.0058595
0.00598278
0.00609985
0.00621042
0.00631423
0.00641103
0.00650059
0.00658272
0.00665721
0.00672392
0.00678271
0.00683345
0.00687607
0.0069105
0.00693671
0.00695471
0.00696451
0.00696618
0.00695979
0.00694546
0.00692333
0.00689359
0.00685643
0.00681209
0.00676083
0.00670295
0.00663876
0.0065686
0.00649286
0.00641193
0.00632623
0.0062362
0.00614232
0.00604508
0.00594497
0.00584253
0.0057383
0.00563284
0.00552672
0.00542051
0.00531482
0.00521023
0.00510736
0.00500682
0.00490921
0.00481513
0.00472519
0.00463998
0.00456008
0.00448605
0.00441843
0.00435774
0.00430447
0.00425908
0.00422201
0.0041937
0.00417457
0.00416485
0.00416491
0.00417817
0.00420747
0.000305776
0.000291351
0.000269265
0.000239479
0.000202401
0.000158746
0.000109195
5.44022e-05
-4.97632e-06
-6.82887e-05
-0.000134893
-0.00020416
-0.000275482
-0.000348274
-0.000421976
-0.00049606
-0.000570026
-0.00064341
-0.000715777
-0.000786727
-0.000855891
-0.000922929
-0.000987532
-0.00104942
-0.00110833
-0.00116405
-0.00121635
-0.00126506
-0.00131
-0.00135102
-0.001388
-0.00142081
-0.00144934
-0.0014735
-0.00149321
-0.0015084
-0.00151899
-0.00152492
-0.00152616
-0.00152264
-0.00151434
-0.00150121
-0.00148322
-0.00146035
-0.00143258
-0.00139988
-0.00136224
-0.00131966
-0.00127211
-0.00121961
-0.00116215
-0.00109974
-0.00103238
-0.000960098
-0.000882906
-0.000800832
-0.000713909
-0.000622176
-0.000525678
-0.000424468
-0.000318609
-0.000208169
-9.32264e-05
2.6131e-05
0.000149806
0.000277692
0.000409671
0.000545615
0.000685384
0.000828828
0.000975784
0.00112608
0.00127953
0.00143593
0.00159507
0.00175674
0.0019207
0.00208669
0.00225448
0.00242377
0.00259431
0.00276579
0.00293792
0.00311038
0.00328287
0.00345504
0.00362658
0.00379713
0.00396636
0.00413391
0.00429943
0.00446257
0.00462298
0.00478028
0.00493414
0.0050842
0.00523011
0.00537153
0.00550814
0.0056396
0.00576561
0.00588585
0.00600004
0.0061079
0.00620919
0.00630364
0.00639105
0.00647121
0.00654394
0.00660909
0.00666651
0.00671609
0.00675776
0.00679146
0.00681716
0.00683484
0.00684455
0.00684633
0.00684027
0.00682649
0.00680511
0.00677632
0.00674032
0.00669734
0.00664763
0.00659147
0.00652919
0.00646112
0.00638762
0.00630908
0.00622591
0.00613855
0.00604745
0.00595308
0.00585594
0.00575654
0.00565539
0.00555305
0.00545005
0.00534696
0.00524434
0.00514277
0.00504282
0.00494509
0.00485013
0.00475854
0.00467087
0.00458769
0.00450955
0.00443698
0.0043705
0.0043106
0.00425775
0.00421242
0.00417503
0.00414604
0.00412589
0.00411485
0.00411331
0.00412445
0.00415082
0.000401345
0.000377287
0.000348166
0.000313168
0.000271843
0.000224847
0.000172822
0.000116334
5.5954e-05
-7.74421e-06
-7.41927e-05
-0.000142835
-0.00021313
-0.000284555
-0.000356611
-0.000428822
-0.000500739
-0.000571941
-0.000642036
-0.000710657
-0.000777468
-0.000842158
-0.000904444
-0.000964066
-0.00102079
-0.0010744
-0.0011247
-0.00117151
-0.0012147
-0.0012541
-0.00128959
-0.00132107
-0.00134843
-0.00137157
-0.00139043
-0.00140492
-0.00141499
-0.00142057
-0.00142162
-0.00141809
-0.00140994
-0.00139713
-0.00137964
-0.00135742
-0.00133047
-0.00129876
-0.00126227
-0.001221
-0.00117492
-0.00112404
-0.00106836
-0.00100787
-0.000942586
-0.00087252
-0.000797688
-0.000718114
-0.000633826
-0.00054486
-0.000451257
-0.000353068
-0.00025035
-0.000143167
-3.15937e-05
8.42867e-05
0.000204382
0.00032859
0.000456798
0.000588884
0.000724712
0.000864139
0.00100701
0.00115315
0.00130239
0.00145453
0.00160936
0.00176669
0.00192626
0.00208786
0.00225122
0.00241609
0.0025822
0.00274925
0.00291697
0.00308504
0.00325316
0.003421
0.00358825
0.00375457
0.00391962
0.00408306
0.00424455
0.00440374
0.00456027
0.00471381
0.004864
0.0050105
0.00515297
0.00529108
0.0054245
0.00555291
0.005676
0.00579348
0.00590506
0.00601047
0.00610946
0.0062018
0.00628725
0.00636563
0.00643676
0.00650048
0.00655666
0.00660519
0.00664599
0.00667901
0.00670421
0.0067216
0.00673119
0.00673304
0.00672724
0.0067139
0.00669315
0.00666517
0.00663015
0.00658831
0.00653992
0.00648524
0.00642459
0.00635829
0.0062867
0.0062102
0.00612919
0.0060441
0.00595536
0.00586343
0.0057688
0.00567196
0.00557341
0.00547368
0.00537328
0.00527278
0.00517269
0.00507359
0.00497602
0.00488053
0.00478768
0.00469801
0.00461207
0.00453038
0.00445348
0.00438186
0.00431601
0.00425642
0.00420354
0.00415781
0.00411967
0.00408955
0.00406791
0.00405502
0.00405128
0.0040595
0.0040819
0.000504679
0.000470452
0.000433762
0.000393016
0.000346888
0.000295983
0.000240908
0.000182145
0.000120181
5.55185e-05
-1.13463e-05
-7.99242e-05
-0.000149738
-0.000220325
-0.000291243
-0.000362067
-0.000432396
-0.000501853
-0.000570085
-0.000636762
-0.00070158
-0.000764258
-0.000824538
-0.000882182
-0.000936976
-0.000988723
-0.00103725
-0.00108239
-0.001124
-0.00116195
-0.00119612
-0.00122641
-0.00125272
-0.00127497
-0.00129308
-0.00130698
-0.00131662
-0.00132193
-0.00132286
-0.00131938
-0.00131144
-0.00129901
-0.00128205
-0.00126053
-0.00123444
-0.00120374
-0.00116842
-0.00112847
-0.00108387
-0.00103462
-0.000980708
-0.00092214
-0.000858919
-0.000791053
-0.000718557
-0.00064145
-0.000559757
-0.000473512
-0.00038275
-0.000287518
-0.00018787
-8.38643e-05
2.44282e-05
0.00013693
0.000253552
0.0003742
0.000498765
0.000627129
0.000759165
0.000894733
0.00103368
0.00117585
0.00132107
0.00146915
0.00161989
0.00177309
0.00192852
0.00208596
0.00224515
0.00240586
0.0025678
0.0027307
0.00289429
0.00305826
0.00322231
0.00338614
0.00354941
0.00371181
0.003873
0.00403265
0.00419043
0.00434598
0.00449897
0.00464906
0.00479591
0.00493917
0.00507851
0.00521361
0.00534413
0.00546978
0.00559025
0.00570523
0.00581446
0.00591766
0.00601459
0.00610502
0.00618872
0.0062655
0.00633519
0.00639763
0.00645269
0.00650027
0.00654029
0.00657268
0.00659742
0.00661452
0.00662398
0.00662587
0.00662027
0.00660728
0.00658704
0.00655973
0.00652552
0.00648465
0.00643736
0.00638392
0.00632464
0.00625983
0.00618985
0.00611506
0.00603586
0.00595265
0.00586588
0.00577599
0.00568343
0.0055887
0.00549229
0.00539468
0.00529641
0.00519798
0.00509993
0.00500277
0.00490705
0.00481329
0.00472202
0.00463375
0.00454902
0.00446831
0.00439214
0.00432098
0.0042553
0.00419555
0.00414219
0.00409563
0.00405629
0.00402461
0.004001
0.00398576
0.00397927
0.00398392
0.0040015
0.000614309
0.000569551
0.000524897
0.000477976
0.000426586
0.000371291
0.000312671
0.000251127
0.00018707
0.000120931
5.31418e-05
-1.58735e-05
-8.56976e-05
-0.000155925
-0.000226167
-0.000296048
-0.000365214
-0.00043333
-0.000500082
-0.000565176
-0.00062834
-0.000689323
-0.000747892
-0.000803835
-0.000856958
-0.000907083
-0.000954049
-0.000997712
-0.00103794
-0.00107461
-0.00110762
-0.00113686
-0.00116226
-0.00118374
-0.00120121
-0.00121463
-0.00122392
-0.00122904
-0.00122994
-0.00122658
-0.00121891
-0.00120691
-0.00119053
-0.00116975
-0.00114455
-0.0011149
-0.00108078
-0.00104217
-0.000999063
-0.000951447
-0.000899315
-0.000842663
-0.000781493
-0.000715811
-0.000645628
-0.00057096
-0.000491827
-0.000408257
-0.000320285
-0.000227952
-0.000131305
-3.0401e-05
7.46958e-05
0.000183912
0.000297166
0.000414366
0.00053541
0.000660186
0.000788572
0.000920434
0.00105563
0.001194
0.00133538
0.00147959
0.00162644
0.00177573
0.00192724
0.00208075
0.00223602
0.00239281
0.00255085
0.00270987
0.00286961
0.00302976
0.00319004
0.00335013
0.00350973
0.00366851
0.00382616
0.00398233
0.00413671
0.00428894
0.00443871
0.00458566
0.00472946
0.00486979
0.0050063
0.00513869
0.00526662
0.00538978
0.00550789
0.00562065
0.00572777
0.00582901
0.0059241
0.00601283
0.00609497
0.00617033
0.00623875
0.00630005
0.00635412
0.00640086
0.00644017
0.00647201
0.00649633
0.00651315
0.00652249
0.00652438
0.00651893
0.00650622
0.0064864
0.00645963
0.00642609
0.00638601
0.00633963
0.00628721
0.00622905
0.00616546
0.0060968
0.00602341
0.00594568
0.00586402
0.00577885
0.00569059
0.00559971
0.00550667
0.00541195
0.00531603
0.00521941
0.00512259
0.00502608
0.00493039
0.00483602
0.00474349
0.0046533
0.00456595
0.00448193
0.00440172
0.00432581
0.00425464
0.00418867
0.00412833
0.00407405
0.00402623
0.00398528
0.00395159
0.00392558
0.00390754
0.00389781
0.00389833
0.00391043
0.000728886
0.000673365
0.000620458
0.00056703
0.000510007
0.000449921
0.000387336
0.000322576
0.000255982
0.000187919
0.000118754
4.88552e-05
-2.14196e-05
-9.17187e-05
-0.000161703
-0.000231046
-0.000299438
-0.000366586
-0.000432213
-0.000496061
-0.00055789
-0.000617478
-0.000674618
-0.000729124
-0.000780821
-0.000829553
-0.000875177
-0.00091756
-0.000956587
-0.000992149
-0.00102415
-0.0010525
-0.00107712
-0.00109794
-0.0011149
-0.00112793
-0.00113697
-0.00114199
-0.00114294
-0.00113977
-0.00113244
-0.00112092
-0.00110518
-0.00108519
-0.00106092
-0.00103235
-0.000999453
-0.000962215
-0.000920618
-0.00087465
-0.000824301
-0.000769565
-0.000710441
-0.000646931
-0.000579042
-0.000506785
-0.000430178
-0.000349245
-0.000264014
-0.000174523
-8.0814e-05
1.70612e-05
0.000119043
0.000225065
0.000335049
0.00044891
0.00056655
0.000687866
0.000812739
0.000941043
0.00107264
0.00120738
0.0013451
0.00148563
0.00162878
0.00177437
0.00192218
0.00207198
0.00222357
0.00237668
0.00253107
0.00268648
0.00284262
0.00299924
0.00315602
0.00331266
0.00346888
0.00362434
0.00377873
0.00393173
0.00408301
0.00423223
0.00437907
0.00452319
0.00466425
0.00480194
0.00493593
0.00506588
0.0051915
0.00531246
0.00542848
0.00553926
0.00564453
0.00574404
0.00583752
0.00592476
0.00600554
0.00607966
0.00614696
0.00620728
0.00626049
0.00630649
0.00634519
0.00637653
0.00640049
0.00641707
0.00642627
0.00642816
0.00642281
0.00641032
0.00639083
0.00636449
0.00633149
0.00629204
0.00624639
0.00619479
0.00613753
0.00607493
0.00600731
0.00593503
0.00585847
0.00577802
0.0056941
0.00560712
0.00551753
0.00542578
0.00533234
0.00523768
0.00514228
0.00504663
0.00495121
0.00485652
0.00476304
0.00467127
0.00458169
0.00449479
0.00441102
0.00433085
0.00425474
0.00418313
0.00411644
0.00405508
0.00399947
0.00394998
0.00390701
0.00387093
0.0038421
0.00382084
0.00380745
0.00380338
0.0038095
0.000847168
0.000780748
0.000719389
0.000659201
0.000596248
0.000531044
0.000464141
0.000395795
0.00032628
0.0002559
0.000184966
0.000113787
4.26691e-05
-2.8088e-05
-9.81934e-05
-0.000167367
-0.000235341
-0.000301863
-0.000366694
-0.000429609
-0.0004904
-0.000548875
-0.000604853
-0.000658172
-0.000708681
-0.000756241
-0.000800728
-0.000842027
-0.000880034
-0.000914655
-0.000945804
-0.000973404
-0.000997382
-0.00101768
-0.00103422
-0.00104697
-0.00105588
-0.00106088
-0.00106195
-0.00105905
-0.00105213
-0.00104116
-0.00102612
-0.00100696
-0.000983671
-0.000956218
-0.000924581
-0.000888738
-0.000848672
-0.000804367
-0.000755811
-0.000702996
-0.000645914
-0.000584566
-0.000518955
-0.000449087
-0.000374977
-0.000296643
-0.000214109
-0.000127407
-3.65759e-05
5.83391e-05
0.000157284
0.000260196
0.000367005
0.00047763
0.000591981
0.000709958
0.000831451
0.000956338
0.00108449
0.00121575
0.00134999
0.00148702
0.00162667
0.00176875
0.00191306
0.00205938
0.0022075
0.00235717
0.00250816
0.00266019
0.00281302
0.00296635
0.0031199
0.00327339
0.0034265
0.00357892
0.00373036
0.00388047
0.00402894
0.00417545
0.00431965
0.00446123
0.00459986
0.0047352
0.00486694
0.00499475
0.00511832
0.00523735
0.00535154
0.00546061
0.00556427
0.00566228
0.00575437
0.00584034
0.00591995
0.00599301
0.00605936
0.00611885
0.00617133
0.0062167
0.00625488
0.00628581
0.00630946
0.00632582
0.00633492
0.00633679
0.00633151
0.00631919
0.00629996
0.00627396
0.00624138
0.00620243
0.00615734
0.00610637
0.00604981
0.00598795
0.00592114
0.0058497
0.00577402
0.00569448
0.00561148
0.00552544
0.00543678
0.00534595
0.00525341
0.00515961
0.00506502
0.0049701
0.00487535
0.00478122
0.0046882
0.00459675
0.00450734
0.00442044
0.00433648
0.00425592
0.0041792
0.00410671
0.00403889
0.00397611
0.00391877
0.00386724
0.00382187
0.00378301
0.003751
0.00372615
0.00370874
0.00369971
0.00369946
0.000968011
0.000890629
0.000820688
0.000753552
0.000684439
0.000613851
0.000542337
0.000470093
0.000397329
0.000324294
0.000251245
0.000178438
0.000106128
3.45677e-05
-3.59993e-05
-0.000105336
-0.000173217
-0.000239427
-0.000303763
-0.000366036
-0.000426068
-0.000483694
-0.000538762
-0.000591133
-0.000640678
-0.000687279
-0.000730829
-0.000771231
-0.000808396
-0.000842241
-0.000872693
-0.000899685
-0.000923155
-0.000943046
-0.000959305
-0.000971885
-0.00098074
-0.000985829
-0.000987112
-0.000984552
-0.000978113
-0.000967764
-0.000953472
-0.000935207
-0.000912943
-0.000886651
-0.000856309
-0.000821892
-0.000783382
-0.000740759
-0.000694009
-0.00064312
-0.000588082
-0.000528891
-0.000465545
-0.000398047
-0.000326407
-0.000250638
-0.000170761
-8.68003e-05
1.20984e-06
9.32291e-05
0.000189209
0.000289094
0.000392817
0.000500306
0.000611475
0.000726231
0.000844469
0.000966075
0.00109092
0.00121887
0.00134978
0.00148349
0.00161981
0.00175858
0.0018996
0.00204265
0.00218752
0.00233398
0.00248179
0.0026307
0.00278045
0.00293076
0.00308135
0.00323193
0.00338221
0.00353188
0.00368063
0.00382815
0.0039741
0.00411817
0.00426004
0.00439937
0.00453584
0.00466912
0.00479889
0.00492483
0.00504664
0.005164
0.00527662
0.00538422
0.00548652
0.00558326
0.00567419
0.00575908
0.00583772
0.00590991
0.00597548
0.00603428
0.00608616
0.00613103
0.0061688
0.0061994
0.0062228
0.006239
0.00624801
0.00624987
0.00624465
0.00623246
0.00621342
0.00618768
0.00615542
0.00611684
0.00607217
0.00602167
0.00596562
0.00590431
0.00583806
0.00576723
0.00569216
0.00561324
0.00553086
0.00544543
0.00535737
0.00526711
0.0051751
0.00508178
0.00498761
0.00489305
0.00479855
0.00470458
0.00461159
0.00452005
0.00443039
0.00434307
0.00425851
0.00417715
0.0040994
0.00402565
0.0039563
0.00389173
0.0038323
0.00377835
0.00373022
0.00368825
0.00365273
0.00362396
0.00360223
0.00358794
0.00358102
0.00109036
0.00100201
0.000923409
0.000849192
0.000773741
0.000697559
0.000621197
0.000544792
0.000468501
0.000392521
0.000317057
0.000242317
0.000168508
9.58364e-05
2.4503e-05
-4.52977e-05
-0.000113379
-0.000179564
-0.000243684
-0.000305582
-0.000365112
-0.000422138
-0.000476532
-0.000528181
-0.000576976
-0.000622822
-0.000665628
-0.000705315
-0.000741808
-0.000775039
-0.000804947
-0.000831475
-0.000854569
-0.000874183
-0.000890271
-0.00090279
-0.000911702
-0.000916967
-0.000918551
-0.000916418
-0.000910536
-0.000900873
-0.000887398
-0.000870081
-0.000848894
-0.00082381
-0.000794802
-0.000761846
-0.000724919
-0.000684002
-0.000639075
-0.000590122
-0.000537132
-0.000480095
-0.000419006
-0.000353863
-0.000284671
-0.000211439
-0.00013418
-5.29164e-05
3.23246e-05
0.000121508
0.000214592
0.000311525
0.000412249
0.000516695
0.000624785
0.000736431
0.000851536
0.00096999
0.00109168
0.00121646
0.0013442
0.00147474
0.00160793
0.00174357
0.00188148
0.00202146
0.0021633
0.00230677
0.00245163
0.00259765
0.00274456
0.00289209
0.00303998
0.00318792
0.00333564
0.00348282
0.00362916
0.00377435
0.00391806
0.00405999
0.00419979
0.00433715
0.00447174
0.00460324
0.00473132
0.00485567
0.00497598
0.00509193
0.00520324
0.00530962
0.0054108
0.0055065
0.00559648
0.00568051
0.00575838
0.00582989
0.00589485
0.00595312
0.00600455
0.00604904
0.0060865
0.00611686
0.00614009
0.00615618