/*--------------------------------*- C++ -*----------------------------------*\
| =========                 |                                                 |
| \\      /  F ield         | OpenFOAM: The Open Source CFD Toolbox           |
|  \\    /   O peration     | Version:  2.1.1                                 |
|   \\  /    A nd           | Web:      www.OpenFOAM.org                      |
|    \\/     M anipulation  |                                                 |
\*---------------------------------------------------------------------------*/
FoamFile
{
    version     2.0;
    format      ascii;
    class       surfaceScalarField;
    location    "0.6";
    object      phi;
}
// * * * * * * * * * * * * * * * * * * * * * * * * * * * * * * * * * * * * * //

dimensions      [0 3 -1 0 0 0 0];

internalField   nonuniform List<scalar> 
51520
(
2.04497e-12
-2.04499e-12
1.06366e-11
-8.59164e-12
2.29204e-11
-1.22838e-11
3.6041e-11
-1.31206e-11
4.80199e-11
-1.19789e-11
5.75251e-11
-9.50521e-12
6.36764e-11
-6.15121e-12
6.59125e-11
-2.2361e-12
6.3895e-11
2.01741e-12
5.74414e-11
6.45361e-12
4.64798e-11
1.09616e-11
3.10185e-11
1.54614e-11
1.11235e-11
1.9895e-11
-1.30965e-11
2.422e-11
-4.15022e-11
2.84057e-11
-7.39324e-11
3.24302e-11
-1.10211e-10
3.62782e-11
-1.5015e-10
3.99394e-11
-1.93557e-10
4.34075e-11
-2.40237e-10
4.66793e-11
-2.89991e-10
4.97541e-11
-3.42624e-10
5.2633e-11
-3.97942e-10
5.53185e-11
-4.55757e-10
5.78143e-11
-5.15882e-10
6.01249e-11
-5.78137e-10
6.22552e-11
-6.42348e-10
6.4211e-11
-7.08346e-10
6.59978e-11
-7.75967e-10
6.76216e-11
-8.45055e-10
6.90882e-11
-9.15459e-10
7.04037e-11
-9.87032e-10
7.15735e-11
-1.05964e-09
7.26033e-11
-1.13313e-09
7.34984e-11
-1.2074e-09
7.42636e-11
-1.2823e-09
7.49037e-11
-1.35772e-09
7.54231e-11
-1.43355e-09
7.58256e-11
-1.50967e-09
7.6115e-11
-1.58596e-09
7.62944e-11
-1.66233e-09
7.63669e-11
-1.73866e-09
7.6335e-11
-1.81486e-09
7.62009e-11
-1.89083e-09
7.59664e-11
-1.96646e-09
7.56332e-11
-2.04166e-09
7.52024e-11
-2.11634e-09
7.46752e-11
-2.19039e-09
7.40521e-11
-2.26373e-09
7.33338e-11
-2.33625e-09
7.25204e-11
-2.40786e-09
7.16121e-11
-2.47847e-09
7.06088e-11
-2.54798e-09
6.95103e-11
-2.61629e-09
6.83164e-11
-2.68332e-09
6.70265e-11
-2.74896e-09
6.56404e-11
-2.81312e-09
6.41576e-11
-2.8757e-09
6.25776e-11
-2.9366e-09
6.09001e-11
-2.99572e-09
5.91248e-11
-3.05297e-09
5.72513e-11
-3.10825e-09
5.52797e-11
-3.16146e-09
5.32099e-11
-3.2125e-09
5.10422e-11
-3.26128e-09
4.87769e-11
-3.3077e-09
4.64147e-11
-3.35165e-09
4.39564e-11
-3.39306e-09
4.14031e-11
-3.43181e-09
3.87563e-11
-3.46783e-09
3.60175e-11
-3.50102e-09
3.31889e-11
-3.53129e-09
3.02728e-11
-3.55856e-09
2.72718e-11
-3.58275e-09
2.4189e-11
-3.60378e-09
2.10277e-11
-3.62157e-09
1.77918e-11
-3.63606e-09
1.44853e-11
-3.64717e-09
1.11129e-11
-3.65485e-09
7.67938e-12
-3.65904e-09
4.19011e-12
-3.65969e-09
6.50761e-13
-3.65676e-09
-2.93259e-12
-3.6502e-09
-6.55351e-12
-3.64e-09
-1.02052e-11
-3.62612e-09
-1.38805e-11
-3.60855e-09
-1.75719e-11
-3.58727e-09
-2.12715e-11
-3.5623e-09
-2.49713e-11
-3.53364e-09
-2.86628e-11
-3.5013e-09
-3.23374e-11
-3.46532e-09
-3.59861e-11
-3.42572e-09
-3.95997e-11
-3.38255e-09
-4.31691e-11
-3.33586e-09
-4.66846e-11
-3.28573e-09
-5.01367e-11
-3.23221e-09
-5.35158e-11
-3.1754e-09
-5.68122e-11
-3.11538e-09
-6.0016e-11
-3.05226e-09
-6.31177e-11
-2.98616e-09
-6.61075e-11
-2.91718e-09
-6.89761e-11
-2.84547e-09
-7.17139e-11
-2.77116e-09
-7.43119e-11
-2.69439e-09
-7.67612e-11
-2.61534e-09
-7.90531e-11
-2.53416e-09
-8.11793e-11
-2.45103e-09
-8.31319e-11
-2.36613e-09
-8.49033e-11
-2.27964e-09
-8.64865e-11
-2.19177e-09
-8.78748e-11
-2.1027e-09
-8.90622e-11
-2.01266e-09
-9.00432e-11
-1.92185e-09
-9.08128e-11
-1.83048e-09
-9.13668e-11
-1.73878e-09
-9.17016e-11
-1.64696e-09
-9.18141e-11
-1.55526e-09
-9.17021e-11
-1.4639e-09
-9.13641e-11
-1.3731e-09
-9.07993e-11
-1.28309e-09
-9.00076e-11
-1.1941e-09
-8.89898e-11
-1.10635e-09
-8.77473e-11
-1.02007e-09
-8.62825e-11
-9.35474e-10
-8.45983e-11
-8.52775e-10
-8.26987e-11
-7.72187e-10
-8.05882e-11
-6.93914e-10
-7.82722e-11
-6.18157e-10
-7.5757e-11
-5.45108e-10
-7.30493e-11
-4.74951e-10
-7.0157e-11
-4.07863e-10
-6.70885e-11
-3.4401e-10
-6.3853e-11
-2.83549e-10
-6.04605e-11
-2.26627e-10
-5.69217e-11
-1.73379e-10
-5.32481e-11
-1.23927e-10
-4.94522e-11
-7.838e-11
-4.55471e-11
-3.6833e-11
-4.1547e-11
6.33963e-13
-3.74669e-11
3.39574e-11
-3.33235e-11
6.30908e-11
-2.91334e-11
8.80068e-11
-2.4916e-11
1.08699e-10
-2.06917e-11
1.25182e-10
-1.64831e-11
1.37497e-10
-1.2315e-11
1.45712e-10
-8.2152e-12
1.49927e-10
-4.21523e-12
1.50278e-10
-3.5111e-13
1.46943e-10
3.33554e-12
1.40147e-10
6.7953e-12
1.30178e-10
9.96932e-12
1.17392e-10
1.27859e-11
1.02236e-10
1.51563e-11
8.52668e-11
1.6969e-11
6.71852e-11
1.80816e-11
4.88746e-11
1.83106e-11
3.14492e-11
1.74253e-11
1.62926e-11
1.51566e-11
5.06921e-12
1.12234e-11
-4.40822e-13
5.51003e-12
-4.40819e-13
8.59496e-12
-1.06399e-11
2.81138e-11
-2.81105e-11
5.31106e-11
-3.72805e-11
7.86954e-11
-3.87055e-11
1.0088e-10
-3.41639e-11
1.1664e-10
-2.52647e-11
1.23779e-10
-1.329e-11
1.20767e-10
7.75843e-13
1.0659e-10
1.61939e-11
8.06293e-11
3.24145e-11
4.25642e-11
4.90267e-11
-7.6972e-12
6.57228e-11
-7.00741e-11
8.22719e-11
-1.44355e-10
9.85011e-11
-2.30231e-10
1.14281e-10
-3.27317e-10
1.29517e-10
-4.35178e-10
1.44139e-10
-5.53337e-10
1.58099e-10
-6.81293e-10
1.71363e-10
-8.18528e-10
1.83914e-10
-9.64513e-10
1.9574e-10
-1.11872e-09
2.06839e-10
-1.28062e-09
2.17217e-10
-1.44969e-09
2.26883e-10
-1.62541e-09
2.35849e-10
-1.80729e-09
2.44132e-10
-1.99482e-09
2.51749e-10
-2.18755e-09
2.5872e-10
-2.38499e-09
2.65064e-10
-2.5867e-09
2.70802e-10
-2.79226e-09
2.75956e-10
-3.00123e-09
2.80544e-10
-3.21321e-09
2.84587e-10
-3.42781e-09
2.88103e-10
-3.64466e-09
2.91112e-10
-3.86339e-09
2.93629e-10
-4.08363e-09
2.95671e-10
-4.30506e-09
2.97252e-10
-4.52733e-09
2.98387e-10
-4.75013e-09
2.99087e-10
-4.97312e-09
2.99363e-10
-5.19601e-09
2.99224e-10
-5.41849e-09
2.98681e-10
-5.64026e-09
2.97738e-10
-5.86103e-09
2.96404e-10
-6.08051e-09
2.94682e-10
-6.29841e-09
2.92577e-10
-6.51445e-09
2.90091e-10
-6.72835e-09
2.87227e-10
-6.93981e-09
2.83987e-10
-7.14857e-09
2.80371e-10
-7.35434e-09
2.76379e-10
-7.55684e-09
2.72011e-10
-7.75579e-09
2.67266e-10
-7.95091e-09
2.62144e-10
-8.14191e-09
2.56643e-10
-8.32852e-09
2.50762e-10
-8.51044e-09
2.445e-10
-8.68739e-09
2.37856e-10
-8.8591e-09
2.3083e-10
-9.02527e-09
2.23421e-10
-9.18562e-09
2.1563e-10
-9.33987e-09
2.07456e-10
-9.48773e-09
1.98902e-10
-9.62892e-09
1.8997e-10
-9.76317e-09
1.80663e-10
-9.89019e-09
1.70984e-10
-1.00097e-08
1.60939e-10
-1.01215e-08
1.50533e-10
-1.02253e-08
1.39774e-10
-1.03207e-08
1.28669e-10
-1.04077e-08
1.17229e-10
-1.04859e-08
1.05465e-10
-1.05551e-08
9.33873e-11
-1.06151e-08
8.10111e-11
-1.06656e-08
6.8351e-11
-1.07066e-08
5.54233e-11
-1.07377e-08
4.22459e-11
-1.07589e-08
2.88383e-11
-1.07699e-08
1.52211e-11
-1.07707e-08
1.41669e-12
-1.0761e-08
-1.25514e-11
-1.07409e-08
-2.66579e-11
-1.07103e-08
-4.08766e-11
-1.0669e-08
-5.51796e-11
-1.0617e-08
-6.95378e-11
-1.05544e-08
-8.39211e-11
-1.0481e-08
-9.8298e-11
-1.03971e-08
-1.12636e-10
-1.03025e-08
-1.26902e-10
-1.01974e-08
-1.41061e-10
-1.00819e-08
-1.55079e-10
-9.95618e-09
-1.68919e-10
-9.82032e-09
-1.82545e-10
-9.67454e-09
-1.95921e-10
-9.51904e-09
-2.0901e-10
-9.35408e-09
-2.21773e-10
-9.17992e-09
-2.34176e-10
-8.99686e-09
-2.46179e-10
-8.80522e-09
-2.57747e-10
-8.60536e-09
-2.68843e-10
-8.39764e-09
-2.79431e-10
-8.18247e-09
-2.89477e-10
-7.96029e-09
-2.98947e-10
-7.73153e-09
-3.07808e-10
-7.49668e-09
-3.16028e-10
-7.25624e-09
-3.23578e-10
-7.01071e-09
-3.30428e-10
-6.76065e-09
-3.36551e-10
-6.5066e-09
-3.41923e-10
-6.24914e-09
-3.46521e-10
-5.98886e-09
-3.50324e-10
-5.72636e-09
-3.53313e-10
-5.46225e-09
-3.55472e-10
-5.19717e-09
-3.56788e-10
-4.93173e-09
-3.57248e-10
-4.66659e-09
-3.56846e-10
-4.40238e-09
-3.55574e-10
-4.13975e-09
-3.53432e-10
-3.87934e-09
-3.50417e-10
-3.62179e-09
-3.46534e-10
-3.36775e-09
-3.41788e-10
-3.11785e-09
-3.36189e-10
-2.8727e-09
-3.29748e-10
-2.63292e-09
-3.2248e-10
-2.3991e-09
-3.14404e-10
-2.17183e-09
-3.0554e-10
-1.95168e-09
-2.95912e-10
-1.73918e-09
-2.85548e-10
-1.53486e-09
-2.74477e-10
-1.33921e-09
-2.62733e-10
-1.15272e-09
-2.5035e-10
-9.75808e-10
-2.3737e-10
-8.08897e-10
-2.23833e-10
-6.5236e-10
-2.09785e-10
-5.06539e-10
-1.95274e-10
-3.71734e-10
-1.80352e-10
-2.48205e-10
-1.65076e-10
-1.36168e-10
-1.49504e-10
-3.57903e-11
-1.33701e-10
5.28122e-11
-1.17736e-10
1.29579e-10
-1.01683e-10
1.94511e-10
-8.56238e-11
2.47675e-10
-6.96469e-11
2.89211e-10
-5.38504e-11
3.19339e-10
-3.83438e-11
3.38374e-10
-2.32497e-11
3.4673e-10
-8.70753e-12
3.44943e-10
5.12231e-12
3.33685e-10
1.80538e-11
3.13786e-10
2.98678e-11
2.86268e-10
4.03042e-11
2.52373e-10
4.90511e-11
2.13611e-10
5.57316e-11
1.71801e-10
5.98909e-11
1.29127e-10
6.09852e-11
8.81587e-11
5.83933e-11
5.18359e-11
5.14794e-11
2.33115e-11
3.97478e-11
5.49932e-12
2.33222e-11
5.0585e-12
1.23127e-11
-2.29526e-11
3.73556e-11
-5.31534e-11
6.73767e-11
-6.73016e-11
9.62206e-11
-6.75494e-11
1.18828e-10
-5.67712e-11
1.312e-10
-3.76371e-11
1.30299e-10
-1.23886e-11
1.13902e-10
1.71732e-11
8.04589e-11
4.96365e-11
2.89657e-11
8.39077e-11
-4.11495e-11
1.19142e-10
-1.30116e-10
1.5469e-10
-2.37897e-10
1.90052e-10
-3.64242e-10
2.24846e-10
-5.08741e-10
2.58781e-10
-6.70862e-10
2.91637e-10
-8.49974e-10
3.23251e-10
-1.04538e-09
3.53505e-10
-1.25633e-09
3.82317e-10
-1.48205e-09
4.09632e-10
-1.72173e-09
4.35419e-10
-1.97456e-09
4.59666e-10
-2.23971e-09
4.82373e-10
-2.51639e-09
5.03555e-10
-2.80377e-09
5.23233e-10
-3.10107e-09
5.41435e-10
-3.40752e-09
5.58195e-10
-3.72235e-09
5.73551e-10
-4.04483e-09
5.87542e-10
-4.37424e-09
6.00209e-10
-4.70987e-09
6.11594e-10
-5.05107e-09
6.21738e-10
-5.39716e-09
6.30682e-10
-5.74752e-09
6.38464e-10
-6.10154e-09
6.45124e-10
-6.4586e-09
6.50695e-10
-6.81815e-09
6.55213e-10
-7.1796e-09
6.58707e-10
-7.54242e-09
6.61207e-10
-7.90607e-09
6.62739e-10
-8.27004e-09
6.63325e-10
-8.6338e-09
6.62988e-10
-8.99686e-09
6.61744e-10
-9.35873e-09
6.5961e-10
-9.71893e-09
6.56599e-10
-1.0077e-08
6.52723e-10
-1.04324e-08
6.47989e-10
-1.07847e-08
6.42407e-10
-1.11335e-08
6.35979e-10
-1.14782e-08
6.28711e-10
-1.18184e-08
6.20604e-10
-1.21537e-08
6.1166e-10
-1.24836e-08
6.01878e-10
-1.28075e-08
5.91258e-10
-1.31252e-08
5.79799e-10
-1.34361e-08
5.67499e-10
-1.37397e-08
5.54356e-10
-1.40355e-08
5.4037e-10
-1.43232e-08
5.25539e-10
-1.46022e-08
5.09862e-10
-1.48722e-08
4.9334e-10
-1.51325e-08
4.75975e-10
-1.53828e-08
4.57769e-10
-1.56226e-08
4.38726e-10
-1.58515e-08
4.18852e-10
-1.6069e-08
3.98154e-10
-1.62747e-08
3.76642e-10
-1.64681e-08
3.54328e-10
-1.66488e-08
3.31225e-10
-1.68163e-08
3.07351e-10
-1.69704e-08
2.82724e-10
-1.71105e-08
2.57366e-10
-1.72364e-08
2.31301e-10
-1.73475e-08
2.04558e-10
-1.74437e-08
1.77166e-10
-1.75245e-08
1.4916e-10
-1.75896e-08
1.20575e-10
-1.76388e-08
9.14525e-11
-1.76718e-08
6.18344e-11
-1.76884e-08
3.1767e-11
-1.76883e-08
1.29944e-12
-1.76713e-08
-2.9516e-11
-1.76373e-08
-6.06241e-11
-1.75863e-08
-9.19668e-11
-1.75179e-08
-1.23483e-10
-1.74324e-08
-1.55109e-10
-1.73295e-08
-1.86778e-10
-1.72094e-08
-2.18422e-10
-1.70721e-08
-2.4997e-10
-1.69176e-08
-2.81348e-10
-1.67462e-08
-3.12482e-10
-1.6558e-08
-3.43296e-10
-1.63532e-08
-3.7371e-10
-1.61321e-08
-4.03647e-10
-1.5895e-08
-4.33026e-10
-1.56422e-08
-4.61767e-10
-1.53742e-08
-4.89789e-10
-1.50914e-08
-5.1701e-10
-1.47942e-08
-5.43352e-10
-1.44832e-08
-5.68734e-10
-1.4159e-08
-5.93077e-10
-1.38221e-08
-6.16304e-10
-1.34732e-08
-6.3834e-10
-1.31131e-08
-6.59111e-10
-1.27423e-08
-6.78546e-10
-1.23618e-08
-6.96577e-10
-1.19722e-08
-7.13137e-10
-1.15745e-08
-7.28167e-10
-1.11694e-08
-7.41606e-10
-1.0758e-08
-7.53402e-10
-1.0341e-08
-7.63505e-10
-9.91943e-09
-7.7187e-10
-9.49429e-09
-7.78456e-10
-9.06653e-09
-7.83229e-10
-8.63716e-09
-7.8616e-10
-8.20718e-09
-7.87224e-10
-7.77762e-09
-7.86404e-10
-7.34951e-09
-7.83688e-10
-6.92387e-09
-7.7907e-10
-6.50174e-09
-7.72551e-10
-6.08413e-09
-7.64137e-10
-5.67208e-09
-7.53841e-10
-5.26659e-09
-7.41685e-10
-4.86864e-09
-7.27693e-10
-4.47922e-09
-7.119e-10
-4.09928e-09
-6.94345e-10
-3.72974e-09
-6.75074e-10
-3.37152e-09
-6.54141e-10
-3.02546e-09
-6.31604e-10
-2.69241e-09
-6.0753e-10
-2.37315e-09
-5.81992e-10
-2.06843e-09
-5.55069e-10
-1.77895e-09
-5.26848e-10
-1.50536e-09
-4.97422e-10
-1.24826e-09
-4.6689e-10
-1.00817e-09
-4.3536e-10
-7.85573e-10
-4.02948e-10
-5.80871e-10
-3.69778e-10
-3.94395e-10
-3.3598e-10
-2.26398e-10
-3.01698e-10
-7.70492e-11
-2.67085e-10
5.35735e-11
-2.32306e-10
1.6549e-10
-1.97541e-10
2.58829e-10
-1.62986e-10
3.33836e-10
-1.28857e-10
3.90887e-10
-9.53948e-11
4.30504e-10
-6.28666e-11
4.53371e-10
-3.15745e-11
4.60355e-10
-1.86253e-12
4.52534e-10
2.58753e-11
4.3122e-10
5.11812e-11
3.98002e-10
7.35228e-11
3.54777e-10
9.2276e-11
3.03798e-10
1.0671e-10
2.47714e-10
1.15975e-10
1.89596e-10
1.19103e-10
1.32941e-10
1.15048e-10
8.16135e-11
1.02807e-10
3.96911e-11
8.16702e-11
1.11893e-11
5.1824e-11
1.62478e-11
1.31984e-11
-3.6151e-11
3.8913e-11
-7.8868e-11
6.78447e-11
-9.62333e-11
9.29215e-11
-9.26262e-11
1.08432e-10
-7.22817e-11
1.09818e-10
-3.90226e-11
9.35341e-11
3.89485e-12
5.69152e-11
5.3792e-11
-1.9587e-12
1.0851e-10
-8.43811e-11
1.6633e-10
-1.91131e-10
2.25892e-10
-3.22565e-10
2.86124e-10
-4.78703e-10
3.46189e-10
-6.59289e-10
4.05432e-10
-8.63854e-10
4.63346e-10
-1.09176e-09
5.19543e-10
-1.34223e-09
5.73727e-10
-1.61441e-09
6.2568e-10
-1.90734e-09
6.75246e-10
-2.22003e-09
7.22318e-10
-2.55144e-09
7.66829e-10
-2.90051e-09
8.08743e-10
-3.26619e-09
8.48052e-10
-3.6474e-09
8.84767e-10
-4.04309e-09
9.18918e-10
-4.4522e-09
9.50544e-10
-4.8737e-09
9.79695e-10
-5.30658e-09
1.00643e-09
-5.74984e-09
1.03081e-09
-6.20254e-09
1.0529e-09
-6.66371e-09
1.07277e-09
-7.13245e-09
1.09048e-09
-7.60788e-09
1.1061e-09
-8.08911e-09
1.1197e-09
-8.57533e-09
1.13134e-09
-9.0657e-09
1.14107e-09
-9.55944e-09
1.14895e-09
-1.00558e-08
1.15504e-09
-1.0554e-08
1.15938e-09
-1.10532e-08
1.16202e-09
-1.15529e-08
1.16299e-09
-1.20522e-08
1.16233e-09
-1.25506e-08
1.16008e-09
-1.30472e-08
1.15625e-09
-1.35415e-08
1.15088e-09
-1.40328e-08
1.14398e-09
-1.45203e-08
1.13557e-09
-1.50036e-08
1.12566e-09
-1.54819e-08
1.11425e-09
-1.59545e-08
1.10137e-09
-1.64209e-08
1.08701e-09
-1.68804e-08
1.07117e-09
-1.73324e-08
1.05385e-09
-1.77762e-08
1.03507e-09
-1.82112e-08
1.01481e-09
-1.86368e-08
9.9307e-10
-1.90523e-08
9.69855e-10
-1.94571e-08
9.45162e-10
-1.98505e-08
9.1899e-10
-2.0232e-08
8.91339e-10
-2.06009e-08
8.62212e-10
-2.09565e-08
8.31614e-10
-2.12983e-08
7.99549e-10
-2.16256e-08
7.66027e-10
-2.19378e-08
7.31059e-10
-2.22343e-08
6.9466e-10
-2.25145e-08
6.56848e-10
-2.27778e-08
6.17644e-10
-2.30237e-08
5.77075e-10
-2.32515e-08
5.3517e-10
-2.34608e-08
4.91965e-10
-2.36509e-08
4.47498e-10
-2.38214e-08
4.01813e-10
-2.39718e-08
3.54959e-10
-2.41016e-08
3.06991e-10
-2.42104e-08
2.57967e-10
-2.42978e-08
2.07953e-10
-2.43634e-08
1.57019e-10
-2.44068e-08
1.05239e-10
-2.44277e-08
5.26941e-11
-2.44259e-08
-5.28971e-13
-2.44011e-08
-5.43395e-11
-2.4353e-08
-1.08641e-10
-2.42817e-08
-1.63332e-10
-2.41868e-08
-2.18307e-10
-2.40685e-08
-2.73455e-10
-2.39266e-08
-3.28661e-10
-2.37612e-08
-3.83806e-10
-2.35724e-08
-4.38766e-10
-2.33604e-08
-4.93416e-10
-2.31252e-08
-5.47625e-10
-2.28673e-08
-6.01262e-10
-2.25868e-08
-6.54192e-10
-2.22842e-08
-7.06278e-10
-2.19598e-08
-7.57382e-10
-2.16142e-08
-8.07366e-10
-2.12479e-08
-8.5609e-10
-2.08615e-08
-9.03416e-10
-2.04556e-08
-9.49205e-10
-2.0031e-08
-9.9332e-10
-1.95885e-08
-1.03563e-09
-1.91288e-08
-1.07599e-09
-1.86529e-08
-1.11428e-09
-1.81616e-08
-1.15037e-09
-1.7656e-08
-1.18414e-09
-1.71371e-08
-1.21548e-09
-1.6606e-08
-1.24426e-09
-1.60638e-08
-1.27039e-09
-1.55116e-08
-1.29377e-09
-1.49507e-08
-1.31429e-09
-1.43823e-08
-1.33189e-09
-1.38077e-08
-1.34647e-09
-1.32282e-08
-1.35798e-09
-1.26451e-08
-1.36634e-09
-1.20597e-08
-1.37152e-09
-1.14735e-08
-1.37347e-09
-1.08877e-08
-1.37217e-09
-1.03038e-08
-1.36758e-09
-9.72318e-09
-1.35971e-09
-9.14719e-09
-1.34855e-09
-8.57721e-09
-1.33411e-09
-8.01463e-09
-1.31643e-09
-7.46079e-09
-1.29552e-09
-6.91703e-09
-1.27145e-09
-6.38466e-09
-1.24427e-09
-5.86496e-09
-1.21404e-09
-5.35917e-09
-1.18086e-09
-4.86851e-09
-1.1448e-09
-4.39414e-09
-1.10598e-09
-3.93716e-09
-1.06451e-09
-3.49864e-09
-1.02051e-09
-3.07958e-09
-9.74133e-10
-2.6809e-09
-9.25519e-10
-2.30349e-09
-8.74835e-10
-1.94813e-09
-8.22254e-10
-1.61552e-09
-7.67966e-10
-1.3063e-09
-7.12171e-10
-1.02099e-09
-6.55086e-10
-7.6003e-10
-5.96942e-10
-5.2374e-10
-5.37988e-10
-3.12334e-10
-4.78491e-10
-1.25898e-10
-4.18742e-10
3.56135e-11
-3.59052e-10
1.72392e-10
-2.99764e-10
2.84786e-10
-2.41251e-10
3.73319e-10
-1.83928e-10
4.38705e-10
-1.28253e-10
4.81871e-10
-7.47403e-11
5.03978e-10
-2.39691e-11
5.0645e-10
2.3403e-11
4.91007e-10
6.66249e-11
4.59694e-10
1.04836e-10
4.14922e-10
1.37047e-10
3.59504e-10
1.62129e-10
2.96678e-10
1.78801e-10
2.30132e-10
1.85649e-10
1.63992e-10
1.81188e-10
1.02793e-10
1.64006e-10
5.14188e-11
1.33045e-10
1.51052e-11
8.81376e-11
3.1353e-11
1.21179e-11
-4.8269e-11
3.45253e-11
-1.01275e-10
5.73023e-11
-1.1901e-10
7.2876e-11
-1.082e-10
7.51782e-11
-7.4584e-11
5.93532e-11
-2.31976e-11
2.15837e-11
4.16644e-11
-4.1051e-11
1.16427e-10
-1.30696e-10
1.98156e-10
-2.48836e-10
2.84469e-10
-3.96391e-10
3.73446e-10
-5.73814e-10
4.63548e-10
-7.81171e-10
5.53546e-10
-1.01821e-09
6.42471e-10
-1.28442e-09
7.29557e-10
-1.57909e-09
8.14209e-10
-1.90133e-09
8.95969e-10
-2.25014e-09
9.74492e-10
-2.62442e-09
1.04952e-09
-3.02298e-09
1.12088e-09
-3.44461e-09
1.18845e-09
-3.88803e-09
1.25217e-09
-4.35197e-09
1.31199e-09
-4.83514e-09
1.36794e-09
-5.33625e-09
1.42003e-09
-5.85403e-09
1.46832e-09
-6.38721e-09
1.51287e-09
-6.93455e-09
1.55377e-09
-7.49482e-09
1.59109e-09
-8.06685e-09
1.62493e-09
-8.64946e-09
1.65538e-09
-9.24152e-09
1.68254e-09
-9.84192e-09
1.7065e-09
-1.04496e-08
1.72736e-09
-1.10634e-08
1.7452e-09
-1.16825e-08
1.76012e-09
-1.23057e-08
1.77219e-09
-1.29322e-08
1.78149e-09
-1.35609e-08
1.78809e-09
-1.41909e-08
1.79206e-09
-1.48214e-08
1.79346e-09
-1.54514e-08
1.79233e-09
-1.60801e-08
1.78873e-09
-1.67065e-08
1.7827e-09
-1.73299e-08
1.77426e-09
-1.79494e-08
1.76346e-09
-1.85641e-08
1.75031e-09
-1.91733e-08
1.73484e-09
-1.97761e-08
1.71706e-09
-2.03717e-08
1.69698e-09
-2.09593e-08
1.67461e-09
-2.15381e-08
1.64996e-09
-2.21072e-08
1.62302e-09
-2.2666e-08
1.59381e-09
-2.32135e-08
1.56233e-09
-2.3749e-08
1.52856e-09
-2.42717e-08
1.49252e-09
-2.47807e-08
1.45419e-09
-2.52753e-08
1.4136e-09
-2.57547e-08
1.37072e-09
-2.62181e-08
1.32558e-09
-2.66646e-08
1.27819e-09
-2.70936e-08
1.22854e-09
-2.75043e-08
1.17666e-09
-2.78958e-08
1.12257e-09
-2.82674e-08
1.06629e-09
-2.86184e-08
1.00785e-09
-2.8948e-08
9.47285e-10
-2.92556e-08
8.84642e-10
-2.95404e-08
8.19965e-10
-2.98017e-08
7.53309e-10
-3.0039e-08
6.84736e-10
-3.02515e-08
6.14315e-10
-3.04386e-08
5.42123e-10
-3.05999e-08
4.68244e-10
-3.07347e-08
3.9277e-10
-3.08425e-08
3.15801e-10
-3.0923e-08
2.37445e-10
-3.09756e-08
1.5782e-10
-3.09999e-08
7.70482e-11
-3.09957e-08
-4.73722e-12
-3.09626e-08
-8.73964e-11
-3.09005e-08
-1.70782e-10
-3.08091e-08
-2.54738e-10
-3.06883e-08
-3.39103e-10
-3.0538e-08
-4.23707e-10
-3.03583e-08
-5.08375e-10
-3.01492e-08
-5.92925e-10
-2.99108e-08
-6.7717e-10
-2.96433e-08
-7.60916e-10
-2.9347e-08
-8.43967e-10
-2.90221e-08
-9.26121e-10
-2.86691e-08
-1.00717e-09
-2.82885e-08
-1.08692e-09
-2.78807e-08
-1.16515e-09
-2.74464e-08
-1.24165e-09
-2.69863e-08
-1.3162e-09
-2.65011e-08
-1.38861e-09
-2.59917e-08
-1.45866e-09
-2.54589e-08
-1.52614e-09
-2.49036e-08
-1.59085e-09
-2.4327e-08
-1.65259e-09
-2.37302e-08
-1.71115e-09
-2.31142e-08
-1.76636e-09
-2.24803e-08
-1.81802e-09
-2.18298e-08
-1.86595e-09
-2.11641e-08
-1.91e-09
-2.04845e-08
-1.94999e-09
-1.97925e-08
-1.98578e-09
-1.90895e-08
-2.01723e-09
-1.83772e-08
-2.04421e-09
-1.76571e-08
-2.0666e-09
-1.69308e-08
-2.08431e-09
-1.61999e-08
-2.09723e-09
-1.54661e-08
-2.10531e-09
-1.47311e-08
-2.10846e-09
-1.39966e-08
-2.10666e-09
-1.32643e-08
-2.09987e-09
-1.2536e-08
-2.08807e-09
-1.18132e-08
-2.07128e-09
-1.10978e-08
-2.0495e-09
-1.03915e-08
-2.02278e-09
-9.69584e-09
-1.99117e-09
-9.01255e-09
-1.95474e-09
-8.34324e-09
-1.91358e-09
-7.68949e-09
-1.86779e-09
-7.05284e-09
-1.81751e-09
-6.43478e-09
-1.76286e-09
-5.83674e-09
-1.70402e-09
-5.2601e-09
-1.64115e-09
-4.70616e-09
-1.57446e-09
-4.17614e-09
-1.50414e-09
-3.67121e-09
-1.43045e-09
-3.19243e-09
-1.35362e-09
-2.74076e-09
-1.27392e-09
-2.31708e-09
-1.19165e-09
-1.92214e-09
-1.10711e-09
-1.5566e-09
-1.02063e-09
-1.22097e-09
-9.32572e-10
-9.15639e-10
-8.43316e-10
-6.40858e-10
-7.53272e-10
-3.9672e-10
-6.62881e-10
-1.8315e-10
-5.72621e-10
9.87096e-14
-4.83014e-10
1.53476e-10
-3.94628e-10
2.77631e-10
-3.08083e-10
3.73449e-10
-2.24071e-10
4.42064e-10
-1.43356e-10
4.84887e-10
-6.67925e-11
5.03632e-10
4.65819e-12
5.00343e-10
6.99137e-11
4.77429e-10
1.2775e-10
4.3769e-10
1.76786e-10
3.84352e-10
2.15467e-10
3.21083e-10
2.4207e-10
2.52013e-10
2.54719e-10
1.8174e-10
2.51461e-10
1.15347e-10
2.30399e-10
5.8449e-11
1.89943e-10
1.73869e-11
1.292e-10
4.87399e-11
9.70154e-12
-5.79705e-11
2.57457e-11
-1.1732e-10
3.83029e-11
-1.31568e-10
3.97078e-11
-1.09605e-10
2.37975e-11
-5.86736e-11
-1.43765e-11
1.49764e-11
-7.87318e-11
1.0602e-10
-1.72295e-10
2.0999e-10
-2.9732e-10
3.2318e-10
-4.55383e-10
4.42533e-10
-6.47486e-10
5.65549e-10
-8.74133e-10
6.90195e-10
-1.13541e-09
8.14827e-10
-1.43107e-09
9.38127e-10
-1.76056e-09
1.05904e-09
-2.12309e-09
1.17674e-09
-2.5177e-09
1.29058e-09
-2.94327e-09
1.40006e-09
-3.39857e-09
1.50481e-09
-3.88225e-09
1.60457e-09
-4.39294e-09
1.69914e-09
-4.92919e-09
1.78842e-09
-5.48954e-09
1.87234e-09
-6.0725e-09
1.9509e-09
-6.67658e-09
2.02412e-09
-7.30031e-09
2.09205e-09
-7.94222e-09
2.15478e-09
-8.60086e-09
2.2124e-09
-9.27479e-09
2.26502e-09
-9.96262e-09
2.31276e-09
-1.0663e-08
2.35574e-09
-1.13745e-08
2.39408e-09
-1.20959e-08
2.42791e-09
-1.28259e-08
2.45736e-09
-1.35633e-08
2.48255e-09
-1.43068e-08
2.50359e-09
-1.50552e-08
2.52059e-09
-1.58073e-08
2.53366e-09
-1.65621e-08
2.54289e-09
-1.73184e-08
2.54837e-09
-1.80751e-08
2.55018e-09
-1.88312e-08
2.5484e-09
-1.95856e-08
2.54309e-09
-2.03372e-08
2.5343e-09
-2.1085e-08
2.52209e-09
-2.1828e-08
2.50649e-09
-2.25653e-08
2.48754e-09
-2.32957e-08
2.46528e-09
-2.40184e-08
2.43972e-09
-2.47323e-08
2.41088e-09
-2.54364e-08
2.37877e-09
-2.61299e-08
2.34341e-09
-2.68117e-08
2.3048e-09
-2.74808e-08
2.26294e-09
-2.81363e-08
2.21784e-09
-2.87773e-08
2.16951e-09
-2.94027e-08
2.11793e-09
-3.00116e-08
2.06312e-09
-3.06031e-08
2.00508e-09
-3.11762e-08
1.94381e-09
-3.17299e-08
1.87934e-09
-3.22634e-08
1.81166e-09
-3.27757e-08
1.74081e-09
-3.32658e-08
1.6668e-09
-3.37329e-08
1.58968e-09
-3.41761e-08
1.50946e-09
-3.45945e-08
1.42621e-09
-3.49871e-08
1.33996e-09
-3.53533e-08
1.25079e-09
-3.56921e-08
1.15877e-09
-3.60027e-08
1.06397e-09
-3.62845e-08
9.66476e-10
-3.65366e-08
8.664e-10
-3.67583e-08
7.63846e-10
-3.6949e-08
6.58936e-10
-3.7108e-08
5.51802e-10
-3.72348e-08
4.42587e-10
-3.73288e-08
3.31444e-10
-3.73895e-08
2.1854e-10
-3.74165e-08
1.0405e-10
-3.74094e-08
-1.18383e-11
-3.73679e-08
-1.28926e-10
-3.72917e-08
-2.47005e-10
-3.71805e-08
-3.65856e-10
-3.70344e-08
-4.85251e-10
-3.68532e-08
-6.04949e-10
-3.66368e-08
-7.24705e-10
-3.63855e-08
-8.44263e-10
-3.60993e-08
-9.63358e-10
-3.57785e-08
-1.08172e-09
-3.54234e-08
-1.19908e-09
-3.50344e-08
-1.31514e-09
-3.46119e-08
-1.42962e-09
-3.41566e-08
-1.54223e-09
-3.36691e-08
-1.65269e-09
-3.315e-08
-1.76068e-09
-3.26003e-08
-1.86593e-09
-3.20208e-08
-1.96812e-09
-3.14125e-08
-2.06698e-09
-3.07764e-08
-2.1622e-09
-3.01138e-08
-2.25351e-09
-2.94257e-08
-2.34062e-09
-2.87136e-08
-2.42326e-09
-2.79788e-08
-2.50117e-09
-2.72227e-08
-2.57408e-09
-2.6447e-08
-2.64174e-09
-2.5653e-08
-2.70393e-09
-2.48426e-08
-2.76041e-09
-2.40174e-08
-2.81099e-09
-2.31792e-08
-2.85546e-09
-2.23297e-08
-2.89365e-09
-2.14709e-08
-2.92539e-09
-2.06047e-08
-2.95054e-09
-1.9733e-08
-2.96899e-09
-1.88577e-08
-2.98061e-09
-1.79808e-08
-2.98533e-09
-1.71043e-08
-2.98309e-09
-1.62304e-08
-2.97385e-09
-1.53609e-08
-2.95758e-09
-1.44978e-08
-2.9343e-09
-1.36433e-08
-2.90402e-09
-1.27993e-08
-2.86681e-09
-1.19677e-08
-2.82274e-09
-1.11505e-08
-2.77191e-09
-1.03497e-08
-2.71444e-09
-9.56697e-09
-2.65049e-09
-8.80424e-09
-2.58023e-09
-8.06324e-09
-2.50386e-09
-7.34565e-09
-2.42161e-09
-6.65309e-09
-2.33372e-09
-5.98708e-09
-2.24047e-09
-5.34907e-09
-2.14215e-09
-4.74041e-09
-2.03911e-09
-4.16234e-09
-1.93168e-09
-3.616e-09
-1.82026e-09
-3.10241e-09
-1.70524e-09
-2.62245e-09
-1.58707e-09
-2.17686e-09
-1.46621e-09
-1.76627e-09
-1.34317e-09
-1.3911e-09
-1.21849e-09
-1.05164e-09
-1.09273e-09
-7.47983e-10
-9.66534e-10
-4.80043e-10
-8.40561e-10
-2.47514e-10
-7.15542e-10
-4.98733e-11
-5.92268e-10
1.13646e-10
-4.71603e-10
2.44071e-10
-3.54495e-10
3.42709e-10
-2.41993e-10
4.11173e-10
-1.35257e-10
4.51408e-10
-3.5577e-11
4.65715e-10
5.56063e-11
4.5678e-10
1.36685e-10
4.27698e-10
2.05868e-10
3.81999e-10
2.61167e-10
3.23668e-10
3.004e-10
2.57172e-10
3.21216e-10
1.87479e-10
3.21153e-10
1.2013e-10
2.97749e-10
6.13509e-11
2.48722e-10
1.83373e-11
1.72213e-10
6.70772e-11
6.38261e-12
-6.43531e-11
1.3793e-11
-1.2473e-10
1.29578e-11
-1.30732e-10
-3.5448e-12
-9.31022e-11
-4.17413e-11
-2.04771e-11
-1.065e-10
7.97351e-11
-2.01697e-10
2.01216e-10
-3.30345e-10
3.38638e-10
-4.94701e-10
4.87536e-10
-6.96358e-10
6.44191e-10
-9.3633e-10
8.05521e-10
-1.21513e-09
9.68993e-10
-1.53283e-09
1.13253e-09
-1.88917e-09
1.29446e-09
-2.28354e-09
1.45341e-09
-2.7151e-09
1.60831e-09
-3.18281e-09
1.75829e-09
-3.68544e-09
1.90269e-09
-4.22164e-09
2.04102e-09
-4.78995e-09
2.17288e-09
-5.38885e-09
2.29803e-09
-6.01672e-09
2.41629e-09
-6.67196e-09
2.52757e-09
-7.35289e-09
2.63183e-09
-8.05786e-09
2.72908e-09
-8.7852e-09
2.81939e-09
-9.53326e-09
2.90284e-09
-1.03004e-08
2.97955e-09
-1.1085e-08
3.04963e-09
-1.18855e-08
3.11324e-09
-1.27003e-08
3.17053e-09
-1.35278e-08
3.22165e-09
-1.43667e-08
3.26676e-09
-1.52153e-08
3.30602e-09
-1.60724e-08
3.33957e-09
-1.69364e-08
3.36758e-09
-1.78059e-08
3.39017e-09
-1.86798e-08
3.40749e-09
-1.95565e-08
3.41964e-09
-2.04349e-08
3.42676e-09
-2.13137e-08
3.42894e-09
-2.21915e-08
3.42627e-09
-2.30673e-08
3.41885e-09
-2.39397e-08
3.40674e-09
-2.48077e-08
3.39002e-09
-2.56699e-08
3.36873e-09
-2.65253e-08
3.34292e-09
-2.73726e-08
3.31263e-09
-2.82108e-08
3.27789e-09
-2.90387e-08
3.23874e-09
-2.98551e-08
3.19518e-09
-3.06589e-08
3.14723e-09
-3.1449e-08
3.09491e-09
-3.22243e-08
3.03822e-09
-3.29836e-08
2.97717e-09
-3.37259e-08
2.91176e-09
-3.44499e-08
2.842e-09
-3.51547e-08
2.7679e-09
-3.58391e-08
2.68947e-09
-3.6502e-08
2.60672e-09
-3.71424e-08
2.51967e-09
-3.7759e-08
2.42833e-09
-3.8351e-08
2.33275e-09
-3.89171e-08
2.23296e-09
-3.94565e-08
2.129e-09
-3.99679e-08
2.02092e-09
-4.04505e-08
1.90879e-09
-4.09032e-08
1.79269e-09
-4.13251e-08
1.67269e-09
-4.17153e-08
1.5489e-09
-4.20727e-08
1.42143e-09
-4.23966e-08
1.29039e-09
-4.26862e-08
1.15592e-09
-4.29405e-08
1.01818e-09
-4.31589e-08
8.77321e-10
-4.33406e-08
7.33529e-10
-4.3485e-08
5.86995e-10
-4.35915e-08
4.37927e-10
-4.36595e-08
2.86546e-10
-4.36885e-08
1.33088e-10
-4.36782e-08
-2.21936e-11
-4.36281e-08
-1.79035e-10
-4.35379e-08
-3.37158e-10
-4.34075e-08
-4.96269e-10
-4.32367e-08
-6.56062e-10
-4.30254e-08
-8.16221e-10
-4.27737e-08
-9.76415e-10
-4.24817e-08
-1.1363e-09
-4.21495e-08
-1.29554e-09
-4.17774e-08
-1.45376e-09
-4.13659e-08
-1.6106e-09
-4.09154e-08
-1.76568e-09
-4.04264e-08
-1.91863e-09
-3.98996e-08
-2.06905e-09
-3.93357e-08
-2.21657e-09
-3.87356e-08
-2.36078e-09
-3.81002e-08
-2.5013e-09
-3.74306e-08
-2.63774e-09
-3.67278e-08
-2.76972e-09
-3.59932e-08
-2.89684e-09
-3.5228e-08
-3.01873e-09
-3.44336e-08
-3.13501e-09
-3.36115e-08
-3.24534e-09
-3.27634e-08
-3.34935e-09
-3.18907e-08
-3.4467e-09
-3.09954e-08
-3.53708e-09
-3.00792e-08
-3.62016e-09
-2.91439e-08
-3.69565e-09
-2.81916e-08
-3.76328e-09
-2.72243e-08
-3.8228e-09
-2.6244e-08
-3.87396e-09
-2.52528e-08
-3.91655e-09
-2.4253e-08
-3.95039e-09
-2.32466e-08
-3.97531e-09
-2.22361e-08
-3.99118e-09
-2.12235e-08
-3.99788e-09
-2.02113e-08
-3.99533e-09
-1.92017e-08
-3.98348e-09
-1.8197e-08
-3.9623e-09
-1.71994e-08
-3.93181e-09
-1.62114e-08
-3.89204e-09
-1.52352e-08
-3.84307e-09
-1.42729e-08
-3.78499e-09
-1.33269e-08
-3.71793e-09
-1.23993e-08
-3.64208e-09
-1.14921e-08
-3.55762e-09
-1.06076e-08
-3.4648e-09
-9.74757e-09
-3.36387e-09
-8.91405e-09
-3.25513e-09
-8.10883e-09
-3.13893e-09
-7.33367e-09
-3.01563e-09
-6.59021e-09
-2.88562e-09
-5.87997e-09
-2.74935e-09
-5.20438e-09
-2.60728e-09
-4.56471e-09
-2.45992e-09
-3.96213e-09
-2.30783e-09
-3.39762e-09
-2.15157e-09
-2.87205e-09
-1.99178e-09
-2.38609e-09
-1.82913e-09
-1.94024e-09
-1.66434e-09
-1.53481e-09
-1.49816e-09
-1.16992e-09
-1.33143e-09
-8.45443e-10
-1.16503e-09
-5.6105e-10
-9.99935e-10
-3.1615e-10
-8.37169e-10
-1.09885e-10
-6.77867e-10
5.88832e-11
-5.23264e-10
1.91602e-10
-3.74712e-10
2.90045e-10
-2.337e-10
3.56335e-10
-1.01867e-10
3.9297e-10
1.89717e-11
4.02843e-10
1.26813e-10
3.89267e-10
2.19443e-10
3.56e-10
2.94434e-10
3.07265e-10
3.49135e-10
2.47782e-10
3.80699e-10
1.82817e-10
3.86119e-10
1.18267e-10
3.62299e-10
6.08216e-11
3.06167e-10
1.82439e-11
2.14791e-10
8.53211e-11
2.46172e-12
-6.68148e-11
-4.13789e-13
-1.21854e-10
-1.70657e-11
-1.1408e-10
-5.4425e-11
-5.57429e-11
-1.18191e-10
4.3289e-11
-2.13003e-10
1.74547e-10
-3.42574e-10
3.30787e-10
-5.09802e-10
5.05866e-10
-7.16862e-10
6.94596e-10
-9.65286e-10
8.92615e-10
-1.25604e-09
1.09628e-09
-1.5896e-09
1.30255e-09
-1.96601e-09
1.50894e-09
-2.38493e-09
1.71338e-09
-2.84573e-09
1.91421e-09
-3.34748e-09
2.11006e-09
-3.88907e-09
2.29987e-09
-4.46917e-09
2.4828e-09
-5.08633e-09
2.65818e-09
-5.73897e-09
2.82553e-09
-6.42544e-09
2.9845e-09
-7.14399e-09
3.13485e-09
-7.89287e-09
3.27644e-09
-8.67025e-09
3.40921e-09
-9.47431e-09
3.53315e-09
-1.03032e-08
3.64832e-09
-1.11552e-08
3.75481e-09
-1.20284e-08
3.85274e-09
-1.2921e-08
3.94226e-09
-1.38313e-08
4.02354e-09
-1.47576e-08
4.09677e-09
-1.5698e-08
4.16211e-09
-1.66511e-08
4.21977e-09
-1.7615e-08
4.26994e-09
-1.85882e-08
4.31279e-09
-1.95691e-08
4.34851e-09
-2.05562e-08
4.37727e-09
-2.1548e-08
4.39924e-09
-2.25429e-08
4.41456e-09