/*--------------------------------*- C++ -*----------------------------------*\
| =========                 |                                                 |
| \\      /  F ield         | OpenFOAM: The Open Source CFD Toolbox           |
|  \\    /   O peration     | Version:  2.1.1                                 |
|   \\  /    A nd           | Web:      www.OpenFOAM.org                      |
|    \\/     M anipulation  |                                                 |
\*---------------------------------------------------------------------------*/
FoamFile
{
    version     2.0;
    format      ascii;
    class       volVectorField;
    location    "0.6";
    object      U;
}
// * * * * * * * * * * * * * * * * * * * * * * * * * * * * * * * * * * * * * //

dimensions      [0 1 -1 0 0 0 0];

internalField   nonuniform List<vector> 
25921
(
(3.2059e-07 -3.20323e-07 0)
(3.5064e-06 -2.09621e-06 0)
(1.05196e-05 -3.16955e-06 0)
(1.9029e-05 -3.4732e-06 0)
(2.73396e-05 -3.26879e-06 0)
(3.44138e-05 -2.75011e-06 0)
(3.95626e-05 -2.04135e-06 0)
(4.2334e-05 -1.22302e-06 0)
(4.24478e-05 -3.46721e-07 0)
(3.97435e-05 5.54359e-07 0)
(3.41444e-05 1.45831e-06 0)
(2.5634e-05 2.35039e-06 0)
(1.42388e-05 3.22051e-06 0)
(1.73898e-08 4.06174e-06 0)
(-1.6949e-05 4.86941e-06 0)
(-3.65623e-05 5.64039e-06 0)
(-5.87128e-05 6.37275e-06 0)
(-8.32829e-05 7.0654e-06 0)
(-0.00011015 7.71792e-06 0)
(-0.000139187 8.33038e-06 0)
(-0.000170268 8.90324e-06 0)
(-0.000203267 9.43722e-06 0)
(-0.000238056 9.93326e-06 0)
(-0.000274514 1.03924e-05 0)
(-0.000312518 1.0816e-05 0)
(-0.000351952 1.12052e-05 0)
(-0.000392701 1.15613e-05 0)
(-0.000434654 1.18856e-05 0)
(-0.000477704 1.21795e-05 0)
(-0.000521749 1.24443e-05 0)
(-0.000566689 1.26812e-05 0)
(-0.000612428 1.28915e-05 0)
(-0.000658875 1.30762e-05 0)
(-0.00070594 1.32365e-05 0)
(-0.00075354 1.33734e-05 0)
(-0.000801591 1.34878e-05 0)
(-0.000850015 1.35807e-05 0)
(-0.000898736 1.36527e-05 0)
(-0.000947678 1.37047e-05 0)
(-0.000996771 1.37372e-05 0)
(-0.00104595 1.37509e-05 0)
(-0.00109513 1.37462e-05 0)
(-0.00114426 1.37235e-05 0)
(-0.00119328 1.36832e-05 0)
(-0.00124211 1.36256e-05 0)
(-0.00129069 1.35509e-05 0)
(-0.00133897 1.34592e-05 0)
(-0.00138688 1.33507e-05 0)
(-0.00143435 1.32254e-05 0)
(-0.00148133 1.30834e-05 0)
(-0.00152775 1.29246e-05 0)
(-0.00157357 1.2749e-05 0)
(-0.0016187 1.25565e-05 0)
(-0.00166309 1.2347e-05 0)
(-0.00170669 1.21205e-05 0)
(-0.00174942 1.18767e-05 0)
(-0.00179123 1.16155e-05 0)
(-0.00183206 1.13369e-05 0)
(-0.00187183 1.10407e-05 0)
(-0.0019105 1.07268e-05 0)
(-0.00194799 1.03951e-05 0)
(-0.00198424 1.00455e-05 0)
(-0.00201919 9.67793e-06 0)
(-0.00205277 9.29246e-06 0)
(-0.00208493 8.88908e-06 0)
(-0.00211559 8.46784e-06 0)
(-0.00214471 8.02886e-06 0)
(-0.00217221 7.57228e-06 0)
(-0.00219803 7.09832e-06 0)
(-0.00222213 6.60724e-06 0)
(-0.00224442 6.09936e-06 0)
(-0.00226487 5.57507e-06 0)
(-0.00228341 5.03482e-06 0)
(-0.0023 4.47913e-06 0)
(-0.00231457 3.90859e-06 0)
(-0.00232708 3.32386e-06 0)
(-0.00233748 2.72567e-06 0)
(-0.00234574 2.11483e-06 0)
(-0.0023518 1.49221e-06 0)
(-0.00235563 8.58767e-07 0)
(-0.00235719 2.15536e-07 0)
(-0.00235646 -4.36384e-07 0)
(-0.00235341 -1.09582e-06 0)
(-0.00234802 -1.76152e-06 0)
(-0.00234027 -2.43217e-06 0)
(-0.00233014 -3.1064e-06 0)
(-0.00231764 -3.78275e-06 0)
(-0.00230275 -4.45973e-06 0)
(-0.00228547 -5.13577e-06 0)
(-0.00226583 -5.80925e-06 0)
(-0.00224382 -6.47851e-06 0)
(-0.00221948 -7.14185e-06 0)
(-0.00219282 -7.79753e-06 0)
(-0.00216388 -8.44376e-06 0)
(-0.00213269 -9.07876e-06 0)
(-0.0020993 -9.7007e-06 0)
(-0.00206376 -1.03078e-05 0)
(-0.00202613 -1.08981e-05 0)
(-0.00198646 -1.14699e-05 0)
(-0.00194483 -1.20213e-05 0)
(-0.00190131 -1.25506e-05 0)
(-0.00185599 -1.3056e-05 0)
(-0.00180895 -1.35356e-05 0)
(-0.00176028 -1.39879e-05 0)
(-0.00171008 -1.44112e-05 0)
(-0.00165846 -1.48039e-05 0)
(-0.00160552 -1.51646e-05 0)
(-0.00155139 -1.54917e-05 0)
(-0.00149617 -1.57839e-05 0)
(-0.00143999 -1.60399e-05 0)
(-0.00138299 -1.62587e-05 0)
(-0.00132528 -1.64391e-05 0)
(-0.00126702 -1.65802e-05 0)
(-0.00120832 -1.66811e-05 0)
(-0.00114934 -1.67412e-05 0)
(-0.00109021 -1.67599e-05 0)
(-0.00103108 -1.67368e-05 0)
(-0.0009721 -1.66714e-05 0)
(-0.000913408 -1.65638e-05 0)
(-0.000855153 -1.64137e-05 0)
(-0.000797481 -1.62215e-05 0)
(-0.000740537 -1.59872e-05 0)
(-0.000684465 -1.57113e-05 0)
(-0.000629407 -1.53944e-05 0)
(-0.000575504 -1.50372e-05 0)
(-0.000522894 -1.46405e-05 0)
(-0.000471709 -1.42053e-05 0)
(-0.000422081 -1.37326e-05 0)
(-0.000374136 -1.32239e-05 0)
(-0.000327996 -1.26804e-05 0)
(-0.000283776 -1.21036e-05 0)
(-0.000241588 -1.14954e-05 0)
(-0.000201535 -1.08574e-05 0)
(-0.000163717 -1.01917e-05 0)
(-0.000128222 -9.50017e-06 0)
(-9.51347e-05 -8.78517e-06 0)
(-6.45293e-05 -8.04902e-06 0)
(-3.64717e-05 -7.29422e-06 0)
(-1.10183e-05 -6.52347e-06 0)
(1.17844e-05 -5.73973e-06 0)
(3.19005e-05 -4.9459e-06 0)
(4.93065e-05 -4.14539e-06 0)
(6.39909e-05 -3.34185e-06 0)
(7.59561e-05 -2.53925e-06 0)
(8.52197e-05 -1.742e-06 0)
(9.18164e-05 -9.55086e-07 0)
(9.57997e-05 -1.84184e-07 0)
(9.72447e-05 5.64119e-07 0)
(9.62513e-05 1.28199e-06 0)
(9.29485e-05 1.96008e-06 0)
(8.74997e-05 2.58677e-06 0)
(8.01101e-05 3.1474e-06 0)
(7.10358e-05 3.62296e-06 0)
(6.05969e-05 3.9881e-06 0)
(4.91943e-05 4.20817e-06 0)
(3.73338e-05 4.23481e-06 0)
(2.56568e-05 4.00179e-06 0)
(1.49677e-05 3.42405e-06 0)
(6.25412e-06 2.4023e-06 0)
(7.12709e-07 8.9604e-07 0)
(-5.50616e-07 -5.49905e-07 0)
(2.09743e-06 -3.50563e-06 0)
(1.06728e-05 -1.06673e-05 0)
(2.56466e-05 -1.46721e-05 0)
(4.26987e-05 -1.55579e-05 0)
(5.86235e-05 -1.4126e-05 0)
(7.12335e-05 -1.10712e-05 0)
(7.88922e-05 -6.9147e-06 0)
(8.0419e-05 -2.03814e-06 0)
(7.50128e-05 3.28438e-06 0)
(6.21636e-05 8.85627e-06 0)
(4.15815e-05 1.45354e-05 0)
(1.31434e-05 2.02181e-05 0)
(-2.3147e-05 2.58286e-05 0)
(-6.71901e-05 3.13109e-05 0)
(-0.000118813 3.66245e-05 0)
(-0.00017779 4.17398e-05 0)
(-0.000243854 4.66362e-05 0)
(-0.000316709 5.12994e-05 0)
(-0.000396037 5.57207e-05 0)
(-0.000481511 5.98952e-05 0)
(-0.00057279 6.38212e-05 0)
(-0.000669535 6.74995e-05 0)
(-0.000771404 7.0933e-05 0)
(-0.000878057 7.41258e-05 0)
(-0.000989161 7.70833e-05 0)
(-0.00110439 7.98115e-05 0)
(-0.00122342 8.23173e-05 0)
(-0.00134593 8.46078e-05 0)
(-0.00147164 8.66902e-05 0)
(-0.00160024 8.85718e-05 0)
(-0.00173145 9.026e-05 0)
(-0.00186499 9.1762e-05 0)
(-0.0020006 9.30845e-05 0)
(-0.00213802 9.42343e-05 0)
(-0.00227701 9.52176e-05 0)
(-0.00241732 9.60402e-05 0)
(-0.00255873 9.67078e-05 0)
(-0.002701 9.72253e-05 0)
(-0.00284392 9.75972e-05 0)
(-0.00298728 9.78279e-05 0)
(-0.00313088 9.79209e-05 0)
(-0.0032745 9.78795e-05 0)
(-0.00341796 9.77066e-05 0)
(-0.00356106 9.74046e-05 0)
(-0.0037036 9.69754e-05 0)
(-0.00384541 9.64206e-05 0)
(-0.00398629 9.57417e-05 0)
(-0.00412607 9.49394e-05 0)
(-0.00426455 9.40146e-05 0)
(-0.00440156 9.29675e-05 0)
(-0.00453692 9.17983e-05 0)
(-0.00467044 9.05069e-05 0)
(-0.00480195 8.90933e-05 0)
(-0.00493126 8.75569e-05 0)
(-0.0050582 8.58975e-05 0)
(-0.00518257 8.41145e-05 0)
(-0.00530421 8.22074e-05 0)
(-0.00542292 8.01757e-05 0)
(-0.00553852 7.80189e-05 0)
(-0.00565084 7.57368e-05 0)
(-0.00575968 7.3329e-05 0)
(-0.00586486 7.07955e-05 0)
(-0.00596621 6.81364e-05 0)
(-0.00606353 6.53519e-05 0)
(-0.00615665 6.24428e-05 0)
(-0.00624539 5.94097e-05 0)
(-0.00632956 5.62538e-05 0)
(-0.006409 5.29767e-05 0)
(-0.00648352 4.958e-05 0)
(-0.00655296 4.60662e-05 0)
(-0.00661716 4.24377e-05 0)
(-0.00667594 3.86976e-05 0)
(-0.00672916 3.48493e-05 0)
(-0.00677665 3.08969e-05 0)
(-0.00681828 2.68445e-05 0)
(-0.00685391 2.26972e-05 0)
(-0.0068834 1.84602e-05 0)
(-0.00690664 1.41393e-05 0)
(-0.0069235 9.74097e-06 0)
(-0.00693389 5.27187e-06 0)
(-0.00693771 7.39325e-07 0)
(-0.00693487 -3.84889e-06 0)
(-0.00692532 -8.48452e-06 0)
(-0.00690898 -1.31589e-05 0)
(-0.00688581 -1.78628e-05 0)
(-0.00685579 -2.25866e-05 0)
(-0.00681888 -2.73205e-05 0)
(-0.00677509 -3.20539e-05 0)
(-0.00672443 -3.67761e-05 0)
(-0.00666693 -4.14761e-05 0)
(-0.00660264 -4.61425e-05 0)
(-0.0065316 -5.07636e-05 0)
(-0.0064539 -5.53274e-05 0)
(-0.00636963 -5.98221e-05 0)
(-0.00627891 -6.42353e-05 0)
(-0.00618186 -6.85547e-05 0)
(-0.00607863 -7.27679e-05 0)
(-0.00596939 -7.68626e-05 0)
(-0.00585432 -8.08263e-05 0)
(-0.00573361 -8.46469e-05 0)
(-0.00560749 -8.83123e-05 0)
(-0.00547618 -9.18104e-05 0)
(-0.00533995 -9.51298e-05 0)
(-0.00519905 -9.82589e-05 0)
(-0.00505378 -0.000101187 0)
(-0.00490442 -0.000103903 0)
(-0.00475129 -0.000106398 0)
(-0.00459473 -0.000108661 0)
(-0.00443506 -0.000110683 0)
(-0.00427264 -0.000112457 0)
(-0.00410785 -0.000113974 0)
(-0.00394104 -0.000115228 0)
(-0.00377261 -0.000116212 0)
(-0.00360294 -0.000116921 0)
(-0.00343244 -0.00011735 0)
(-0.00326151 -0.000117495 0)
(-0.00309057 -0.000117354 0)
(-0.00292001 -0.000116924 0)
(-0.00275026 -0.000116205 0)
(-0.00258174 -0.000115197 0)
(-0.00241486 -0.0001139 0)
(-0.00225003 -0.000112317 0)
(-0.00208766 -0.00011045 0)
(-0.00192815 -0.000108303 0)
(-0.00177191 -0.000105882 0)
(-0.00161932 -0.000103192 0)
(-0.00147076 -0.000100239 0)
(-0.0013266 -9.7033e-05 0)
(-0.0011872 -9.35815e-05 0)
(-0.0010529 -8.98946e-05 0)
(-0.000924037 -8.59833e-05 0)
(-0.000800915 -8.18592e-05 0)
(-0.000683831 -7.75353e-05 0)
(-0.000573058 -7.30253e-05 0)
(-0.000468851 -6.8344e-05 0)
(-0.000371441 -6.35073e-05 0)
(-0.000281035 -5.85321e-05 0)
(-0.000197814 -5.34366e-05 0)
(-0.000121932 -4.82403e-05 0)
(-5.35125e-05 -4.29642e-05 0)
(7.35268e-06 -3.76305e-05 0)
(6.06059e-05 -3.22635e-05 0)
(0.000106227 -2.68899e-05 0)
(0.000144237 -2.15385e-05 0)
(0.000174701 -1.62414e-05 0)
(0.000197734 -1.10347e-05 0)
(0.000213506 -5.95863e-06 0)
(0.00022225 -1.05965e-06 0)
(0.000224269 3.6086e-06 0)
(0.00021995 7.98315e-06 0)
(0.000209771 1.19888e-05 0)
(0.000194325 1.55348e-05 0)
(0.000174335 1.85098e-05 0)
(0.000150681 2.07754e-05 0)
(0.000124428 2.21586e-05 0)
(9.686e-05 2.24432e-05 0)
(6.95118e-05 2.13682e-05 0)
(4.41546e-05 1.86476e-05 0)
(2.27382e-05 1.40277e-05 0)
(7.5252e-06 7.53499e-06 0)
(8.91298e-07 7.11064e-07 0)
(3.17788e-06 -1.05266e-05 0)
(1.47078e-05 -2.565e-05 0)
(3.33251e-05 -3.32666e-05 0)
(5.32979e-05 -3.41378e-05 0)
(7.05908e-05 -2.97064e-05 0)
(8.23963e-05 -2.13233e-05 0)
(8.65009e-05 -1.01013e-05 0)
(8.1227e-05 3.08398e-06 0)
(6.53794e-05 1.75616e-05 0)
(3.81544e-05 3.28224e-05 0)
(-9.39808e-07 4.8481e-05 0)
(-5.21486e-05 6.42457e-05 0)
(-0.000115523 7.98956e-05 0)
(-0.000190963 9.52638e-05 0)
(-0.000278249 0.000110225 0)
(-0.000377073 0.000124685 0)
(-0.000487054 0.000138577 0)
(-0.000607764 0.000151852 0)
(-0.000738733 0.000164476 0)
(-0.000879467 0.000176428 0)
(-0.00102945 0.000187699 0)
(-0.00118817 0.000198285 0)
(-0.00135509 0.000208188 0)
(-0.00152969 0.000217416 0)
(-0.00171144 0.000225982 0)
(-0.00189984 0.000233898 0)
(-0.00209436 0.000241181 0)
(-0.00229454 0.000247849 0)
(-0.00249987 0.00025392 0)
(-0.00270989 0.000259414 0)
(-0.00292414 0.000264349 0)
(-0.00314219 0.000268744 0)
(-0.0033636 0.000272617 0)
(-0.00358796 0.000275987 0)
(-0.00381486 0.00027887 0)
(-0.00404392 0.000281283 0)
(-0.00427476 0.00028324 0)
(-0.00450701 0.000284756 0)
(-0.00474032 0.000285842 0)
(-0.00497433 0.000286511 0)
(-0.0052087 0.000286773 0)
(-0.00544311 0.000286637 0)
(-0.00567723 0.000286112 0)
(-0.00591073 0.000285203 0)
(-0.00614332 0.000283918 0)
(-0.00637467 0.00028226 0)
(-0.00660447 0.000280234 0)
(-0.00683244 0.000277842 0)
(-0.00705826 0.000275087 0)
(-0.00728163 0.00027197 0)
(-0.00750226 0.000268492 0)
(-0.00771985 0.000264654 0)
(-0.0079341 0.000260454 0)
(-0.00814472 0.000255893 0)
(-0.0083514 0.00025097 0)
(-0.00855386 0.000245684 0)
(-0.00875178 0.000240034 0)
(-0.00894489 0.000234019 0)
(-0.00913286 0.000227638 0)
(-0.00931542 0.000220891 0)
(-0.00949226 0.000213778 0)
(-0.00966308 0.000206298 0)
(-0.00982758 0.000198454 0)
(-0.00998548 0.000190247 0)
(-0.0101365 0.000181678 0)
(-0.0102803 0.00017275 0)
(-0.0104166 0.000163468 0)
(-0.0105452 0.000153837 0)
(-0.0106657 0.000143861 0)
(-0.0107779 0.000133549 0)
(-0.0108815 0.000122908 0)
(-0.0109763 0.000111947 0)
(-0.011062 0.000100677 0)
(-0.0111384 8.91102e-05 0)
(-0.0112052 7.72587e-05 0)
(-0.0112622 6.51374e-05 0)
(-0.0113093 5.27619e-05 0)
(-0.0113462 4.01496e-05 0)
(-0.0113727 2.73188e-05 0)
(-0.0113886 1.42896e-05 0)
(-0.011394 1.0832e-06 0)
(-0.0113885 -1.22777e-05 0)
(-0.0113721 -2.57692e-05 0)
(-0.0113447 -3.9366e-05 0)
(-0.0113063 -5.30415e-05 0)
(-0.0112568 -6.67681e-05 0)
(-0.0111961 -8.05168e-05 0)
(-0.0111243 -9.42577e-05 0)
(-0.0110414 -0.00010796 0)
(-0.0109474 -0.000121591 0)
(-0.0108425 -0.00013512 0)
(-0.0107266 -0.000148511 0)
(-0.0106 -0.000161732 0)
(-0.0104628 -0.000174747 0)
(-0.0103152 -0.000187521 0)
(-0.0101575 -0.000200021 0)
(-0.0099897 -0.000212209 0)
(-0.00981225 -0.00022405 0)
(-0.00962541 -0.000235511 0)
(-0.00942949 -0.000246554 0)
(-0.00922486 -0.000257147 0)
(-0.00901188 -0.000267255 0)
(-0.00879097 -0.000276845 0)
(-0.00856255 -0.000285884 0)
(-0.00832708 -0.000294342 0)
(-0.00808504 -0.000302189 0)
(-0.00783693 -0.000309395 0)
(-0.00758329 -0.000315934 0)
(-0.00732465 -0.00032178 0)
(-0.00706158 -0.000326909 0)
(-0.00679466 -0.0003313 0)
(-0.0065245 -0.000334933 0)
(-0.00625171 -0.000337789 0)
(-0.00597692 -0.000339855 0)
(-0.00570077 -0.000341116 0)
(-0.00542389 -0.000341563 0)
(-0.00514696 -0.000341187 0)
(-0.00487063 -0.000339983 0)
(-0.00459555 -0.000337948 0)
(-0.00432241 -0.000335082 0)
(-0.00405185 -0.00033139 0)
(-0.00378454 -0.000326875 0)
(-0.00352113 -0.000321547 0)
(-0.00326226 -0.000315417 0)
(-0.00300857 -0.0003085 0)
(-0.00276069 -0.000300812 0)
(-0.00251921 -0.000292374 0)
(-0.00228473 -0.000283209 0)
(-0.00205782 -0.000273343 0)
(-0.00183901 -0.000262804 0)
(-0.00162885 -0.000251625 0)
(-0.00142781 -0.000239838 0)
(-0.00123637 -0.000227483 0)
(-0.00105496 -0.000214598 0)
(-0.00088399 -0.000201228 0)
(-0.000723814 -0.000187419 0)
(-0.000574761 -0.000173221 0)
(-0.000437112 -0.000158687 0)
(-0.000311106 -0.000143875 0)
(-0.000196932 -0.000128845 0)
(-9.47274e-05 -0.000113665 0)
(-4.57211e-06 -9.84057e-05 0)
(7.35135e-05 -8.3145e-05 0)
(0.000139576 -6.79682e-05 0)
(0.000193733 -5.29691e-05 0)
(0.000236184 -3.82528e-05 0)
(0.000267215 -2.39363e-05 0)
(0.000287211 -1.01525e-05 0)
(0.000296668 2.94613e-06 0)
(0.000296209 1.51832e-05 0)
(0.000286598 2.63527e-05 0)
(0.000268763 3.62113e-05 0)
(0.00024382 4.447e-05 0)
(0.0002131 5.07844e-05 0)
(0.000178175 5.47451e-05 0)
(0.000140886 5.5875e-05 0)
(0.000103357 5.36446e-05 0)
(6.79459e-05 4.75348e-05 0)
(3.71425e-05 3.71779e-05 0)
(1.3994e-05 2.27381e-05 0)
(2.38897e-06 6.23764e-06 0)
(3.49565e-06 -1.90684e-05 0)
(1.56499e-05 -4.27555e-05 0)
(3.43097e-05 -5.32645e-05 0)
(5.28634e-05 -5.26604e-05 0)
(6.6763e-05 -4.32022e-05 0)
(7.28352e-05 -2.69657e-05 0)
(6.85283e-05 -5.71329e-06 0)
(5.1857e-05 1.91197e-05 0)
(2.13625e-05 4.63917e-05 0)
(-2.39713e-05 7.52062e-05 0)
(-8.47952e-05 0.000104863 0)
(-0.000161461 0.00013482 0)
(-0.000254078 0.000164654 0)
(-0.00036256 0.00019404 0)
(-0.000486667 0.00022273 0)
(-0.000626035 0.000250534 0)
(-0.000780204 0.000277309 0)
(-0.000948642 0.000302954 0)
(-0.00113076 0.000327394 0)
(-0.00132593 0.00035058 0)
(-0.0015335 0.000372483 0)
(-0.00175278 0.000393091 0)
(-0.0019831 0.000412401 0)
(-0.00222377 0.000430423 0)
(-0.0024741 0.000447174 0)
(-0.00273341 0.000462676 0)
(-0.00300103 0.000476955 0)
(-0.0032763 0.000490044 0)
(-0.00355858 0.000501973 0)
(-0.00384723 0.000512777 0)
(-0.00414164 0.00052249 0)
(-0.00444122 0.000531146 0)
(-0.00474538 0.00053878 0)
(-0.00505357 0.000545423 0)
(-0.00536522 0.000551108 0)
(-0.00567981 0.000555864 0)
(-0.00599682 0.00055972 0)
(-0.00631575 0.000562701 0)
(-0.0066361 0.000564831 0)
(-0.00695739 0.000566133 0)
(-0.00727917 0.000566626 0)
(-0.00760096 0.000566327 0)
(-0.00792233 0.000565253 0)
(-0.00824282 0.000563416 0)
(-0.00856201 0.000560828 0)
(-0.00887946 0.000557499 0)
(-0.00919475 0.000553435 0)
(-0.00950746 0.000548644 0)
(-0.00981717 0.00054313 0)
(-0.0101235 0.000536895 0)
(-0.010426 0.000529943 0)
(-0.0107242 0.000522274 0)
(-0.0110178 0.000513888 0)
(-0.0113063 0.000504786 0)
(-0.0115894 0.000494965 0)
(-0.0118666 0.000484427 0)
(-0.0121376 0.000473168 0)
(-0.0124018 0.000461188 0)
(-0.0126589 0.000448488 0)
(-0.0129086 0.000435065 0)
(-0.0131503 0.000420922 0)
(-0.0133837 0.00040606 0)
(-0.0136083 0.00039048 0)
(-0.0138239 0.000374188 0)
(-0.0140299 0.000357188 0)
(-0.014226 0.000339486 0)
(-0.0144118 0.000321092 0)
(-0.0145869 0.000302015 0)
(-0.0147509 0.000282268 0)
(-0.0149036 0.000261864 0)
(-0.0150444 0.000240822 0)
(-0.0151731 0.000219158 0)
(-0.0152893 0.000196895 0)
(-0.0153927 0.000174056 0)
(-0.015483 0.000150667 0)
(-0.0155599 0.000126757 0)
(-0.0156231 0.000102358 0)
(-0.0156724 7.75033e-05 0)
(-0.0157076 5.22298e-05 0)
(-0.0157283 2.65768e-05 0)
(-0.0157345 5.8621e-07 0)
(-0.015726 -2.56973e-05 0)
(-0.0157026 -5.22267e-05 0)
(-0.0156641 -7.89524e-05 0)
(-0.0156106 -0.000105822 0)
(-0.015542 -0.000132783 0)
(-0.0154582 -0.000159776 0)
(-0.0153593 -0.000186745 0)
(-0.0152452 -0.000213629 0)
(-0.0151161 -0.000240366 0)
(-0.014972 -0.000266891 0)
(-0.0148132 -0.000293141 0)
(-0.0146398 -0.000319049 0)
(-0.014452 -0.000344547 0)
(-0.01425 -0.000369567 0)
(-0.0140342 -0.000394043 0)
(-0.0138049 -0.000417904 0)
(-0.0135624 -0.000441082 0)
(-0.0133072 -0.00046351 0)
(-0.0130397 -0.000485119 0)
(-0.0127603 -0.000505844 0)
(-0.0124697 -0.000525617 0)
(-0.0121682 -0.000544376 0)
(-0.0118566 -0.000562058 0)
(-0.0115355 -0.000578602 0)
(-0.0112054 -0.000593951 0)
(-0.0108671 -0.00060805 0)
(-0.0105213 -0.000620846 0)
(-0.0101688 -0.00063229 0)
(-0.00981016 -0.000642336 0)
(-0.00944634 -0.000650942 0)
(-0.00907809 -0.00065807 0)
(-0.00870625 -0.000663686 0)
(-0.00833167 -0.000667762 0)
(-0.0079552 -0.000670271 0)
(-0.00757773 -0.000671194 0)
(-0.00720012 -0.000670515 0)
(-0.00682326 -0.000668226 0)
(-0.00644806 -0.00066432 0)
(-0.00607541 -0.000658798 0)
(-0.00570618 -0.000651667 0)
(-0.00534128 -0.000642938 0)
(-0.00498158 -0.000632628 0)
(-0.00462794 -0.000620759 0)
(-0.00428122 -0.00060736 0)
(-0.00394225 -0.000592464 0)
(-0.00361185 -0.000576111 0)
(-0.0032908 -0.000558347 0)
(-0.00297988 -0.000539221 0)
(-0.00267981 -0.000518791 0)
(-0.00239129 -0.000497118 0)
(-0.002115 -0.00047427 0)
(-0.00185154 -0.000450322 0)
(-0.00160151 -0.000425351 0)
(-0.00136543 -0.000399444 0)
(-0.0011438 -0.000372693 0)
(-0.000937041 -0.000345197 0)
(-0.000745525 -0.000317059 0)
(-0.000569565 -0.000288394 0)
(-0.000409408 -0.000259323 0)
(-0.000265226 -0.000229977 0)
(-0.000137117 -0.000200497 0)
(-2.50974e-05 -0.000171037 0)
(7.09089e-05 -0.000141764 0)
(0.000151073 -0.000112861 0)
(0.000215672 -8.45339e-05 0)
(0.000265103 -5.7009e-05 0)
(0.000299891 -3.05418e-05 0)
(0.000320702 -5.42243e-06 0)
(0.000328366 1.80178e-05 0)
(0.00032389 3.93976e-05 0)
(0.00030848 5.82752e-05 0)
(0.000283566 7.4138e-05 0)
(0.000250824 8.63922e-05 0)
(0.000212198 9.43563e-05 0)
(0.000169919 9.72667e-05 0)
(0.000126516 9.43131e-05 0)
(8.47432e-05 8.47301e-05 0)
(4.75083e-05 6.79792e-05 0)
(1.86004e-05 4.41343e-05 0)
(3.40169e-06 1.49205e-05 0)
(3.30997e-06 -2.74489e-05 0)
(1.42869e-05 -5.87959e-05 0)
(3.00064e-05 -7.06462e-05 0)
(4.35798e-05 -6.65909e-05 0)
(5.02205e-05 -4.98379e-05 0)
(4.65468e-05 -2.3235e-05 0)
(2.98242e-05 1.07878e-05 0)
(-2.10287e-06 5.02178e-05 0)
(-5.08491e-05 9.34176e-05 0)
(-0.000117565 0.00013907 0)
(-0.00020301 0.000186123 0)
(-0.000307613 0.000233742 0)
(-0.000431528 0.000281269 0)
(-0.000574685 0.000328185 0)
(-0.000736829 0.000374087 0)
(-0.00091756 0.000418664 0)
(-0.00111636 0.000461677 0)
(-0.0013326 0.000502949 0)
(-0.00156562 0.000542351 0)
(-0.00181467 0.000579795 0)
(-0.00207897 0.000615222 0)
(-0.00235772 0.000648601 0)
(-0.00265009 0.000679922 0)
(-0.00295527 0.000709192 0)
(-0.00327241 0.000736429 0)
(-0.0036007 0.000761663 0)
(-0.00393931 0.000784933 0)
(-0.00428743 0.00080628 0)
(-0.00464428 0.000825755 0)
(-0.00500907 0.000843405 0)
(-0.00538105 0.000859284 0)
(-0.00575947 0.000873442 0)
(-0.00614362 0.000885932 0)
(-0.00653278 0.000896804 0)
(-0.00692628 0.000906107 0)
(-0.00732344 0.000913886 0)
(-0.00772361 0.000920187 0)
(-0.00812616 0.000925048 0)
(-0.00853048 0.000928509 0)
(-0.00893595 0.000930604 0)
(-0.00934198 0.000931364 0)
(-0.00974799 0.000930817 0)
(-0.0101534 0.000928988 0)
(-0.0105577 0.000925898 0)
(-0.0109603 0.000921566 0)
(-0.0113606 0.000916007 0)
(-0.0117582 0.000909234 0)
(-0.0121524 0.000901258 0)
(-0.0125428 0.000892085 0)
(-0.0129288 0.000881723 0)
(-0.0133099 0.000870175 0)
(-0.0136856 0.000857444 0)
(-0.0140554 0.00084353 0)
(-0.0144187 0.000828435 0)
(-0.0147751 0.000812158 0)
(-0.0151239 0.000794698 0)
(-0.0154648 0.000776055 0)
(-0.0157971 0.000756228 0)
(-0.0161204 0.000735218 0)
(-0.0164342 0.000713025 0)
(-0.0167379 0.000689652 0)
(-0.017031 0.000665101 0)
(-0.017313 0.00063938 0)
(-0.0175835 0.000612494 0)
(-0.0178419 0.000584454 0)
(-0.0180878 0.000555272 0)
(-0.0183206 0.000524962 0)
(-0.0185399 0.000493543 0)
(-0.0187452 0.000461036 0)
(-0.018936 0.000427464 0)
(-0.019112 0.000392856 0)
(-0.0192726 0.000357244 0)
(-0.0194175 0.000320663 0)
(-0.0195463 0.000283153 0)
(-0.0196586 0.000244756 0)
(-0.019754 0.000205522 0)
(-0.0198322 0.000165501 0)
(-0.0198929 0.00012475 0)
(-0.0199358 8.33288e-05 0)
(-0.0199607 4.13025e-05 0)
(-0.0199672 -1.26028e-06 0)
(-0.0199552 -4.42866e-05 0)
(-0.0199246 -8.76996e-05 0)
(-0.0198752 -0.000131418 0)
(-0.0198069 -0.000175358 0)
(-0.0197196 -0.00021943 0)
(-0.0196134 -0.000263544 0)
(-0.0194881 -0.000307603 0)
(-0.019344 -0.00035151 0)
(-0.0191811 -0.000395164 0)
(-0.0189995 -0.000438462 0)
(-0.0187994 -0.000481298 0)
(-0.0185811 -0.000523565 0)
(-0.0183448 -0.000565156 0)
(-0.0180908 -0.000605959 0)
(-0.0178195 -0.000645864 0)
(-0.0175314 -0.000684762 0)
(-0.0172269 -0.00072254 0)
(-0.0169065 -0.00075909 0)
(-0.0165707 -0.000794302 0)
(-0.0162202 -0.000828068 0)
(-0.0158556 -0.000860284 0)
(-0.0154776 -0.000890845 0)
(-0.0150868 -0.000919652 0)
(-0.0146842 -0.000946607 0)
(-0.0142704 -0.000971618 0)
(-0.0138464 -0.000994595 0)
(-0.013413 -0.00101545 0)
(-0.0129711 -0.00103412 0)
(-0.0125216 -0.00105051 0)
(-0.0120657 -0.00106456 0)
(-0.0116042 -0.00107622 0)
(-0.0111381 -0.00108542 0)
(-0.0106687 -0.00109212 0)
(-0.0101968 -0.00109629 0)
(-0.00972355 -0.00109788 0)
(-0.0092501 -0.00109687 0)
(-0.00877753 -0.00109326 0)
(-0.00830692 -0.00108702 0)
(-0.0078394 -0.00107817 0)
(-0.00737605 -0.0010667 0)
(-0.00691798 -0.00105265 0)
(-0.00646627 -0.00103604 0)
(-0.00602199 -0.00101691 0)
(-0.0055862 -0.000995296 0)
(-0.00515992 -0.000971261 0)
(-0.00474417 -0.000944868 0)
(-0.00433992 -0.000916192 0)
(-0.00394811 -0.000885314 0)
(-0.00356965 -0.000852328 0)
(-0.0032054 -0.000817334 0)
(-0.00285617 -0.000780444 0)
(-0.00252274 -0.000741778 0)
(-0.00220582 -0.000701466 0)
(-0.00190607 -0.000659648 0)
(-0.00162408 -0.000616475 0)
(-0.00136037 -0.000572107 0)
(-0.0011154 -0.000526718 0)
(-0.000889549 -0.000480493 0)
(-0.000683109 -0.000433631 0)
(-0.000496287 -0.000386345 0)
(-0.000329193 -0.000338867 0)
(-0.000181837 -0.000291447 0)
(-5.41153e-05 -0.000244358 0)
(5.41907e-05 -0.000197896 0)
(0.000143432 -0.000152392 0)
(0.000214102 -0.000108209 0)
(0.000266846 -6.57526e-05 0)
(0.00030248 -2.54801e-05 0)
(0.000322005 1.20933e-05 0)
(0.000326626 4.6382e-05 0)
(0.000317773 7.67191e-05 0)
(0.000297118 0.000102345 0)
(0.000266597 0.000122398 0)
(0.000228425 0.000135914 0)
(0.000185115 0.000141836 0)
(0.000139486 0.000139063 0)
(9.46038e-05 0.000126544 0)
(5.3743e-05 0.000103454 0)
(2.13465e-05 6.95004e-05 0)
(3.97566e-06 2.55743e-05 0)
(2.81098e-06 -3.46336e-05 0)
(1.1294e-05 -7.1578e-05 0)
(2.17139e-05 -8.25823e-05 0)
(2.74248e-05 -7.27141e-05 0)
(2.36529e-05 -4.61695e-05 0)
(6.93716e-06 -6.58777e-06 0)
(-2.55244e-05 4.29293e-05 0)
(-7.59533e-05 9.97899e-05 0)
(-0.000146034 0.000161854 0)
(-0.000236984 0.00022737 0)
(-0.000349618 0.000294916 0)
(-0.000484409 0.000363344 0)
(-0.000641537 0.000431734 0)
(-0.000820935 0.000499351 0)
(-0.00102234 0.000565615 0)
(-0.00124531 0.00063007 0)
(-0.00148928 0.000692365 0)
(-0.00175357 0.00075223 0)
(-0.00203741 0.000809468 0)
(-0.00233998 0.000863937 0)
(-0.00266039 0.000915543 0)
(-0.00299774 0.000964227 0)
(-0.00335108 0.00100996 0)
(-0.00371947 0.00105275 0)
(-0.00410193 0.00109261 0)
(-0.00449753 0.00112958 0)
(-0.0049053 0.0011637 0)
(-0.0053243 0.00119502 0)
(-0.00575362 0.00122362 0)
(-0.00619233 0.00124956 0)
(-0.00663954 0.0012729 0)
(-0.00709439 0.00129372 0)
(-0.00755601 0.0013121 0)
(-0.00802357 0.00132809 0)
(-0.00849625 0.00134177 0)
(-0.00897327 0.00135321 0)
(-0.00945384 0.00136246 0)
(-0.00993721 0.00136958 0)
(-0.0104226 0.00137462 0)
(-0.0109094 0.00137764 0)
(-0.0113968 0.00137868 0)
(-0.011884 0.00137777 0)
(-0.0123706 0.00137497 0)
(-0.0128556 0.00137028 0)
(-0.0133386 0.00136375 0)
(-0.0138188 0.00135539 0)
(-0.0142957 0.00134523 0)
(-0.0147684 0.00133328 0)
(-0.0152365 0.00131955 0)
(-0.0156992 0.00130405 0)
(-0.016156 0.00128678 0)
(-0.0166062 0.00126776 0)
(-0.0170491 0.00124699 0)
(-0.0174843 0.00122446 0)
(-0.017911 0.00120018 0)
(-0.0183286 0.00117415 0)
(-0.0187365 0.00114636 0)
(-0.0191341 0.00111683 0)
(-0.0195208 0.00108555 0)
(-0.0198959 0.00105252 0)
(-0.0202589 0.00101775 0)
(-0.0206092 0.000981252 0)
(-0.0209461 0.000943027 0)
(-0.021269 0.00090309 0)
(-0.0215774 0.000861457 0)
(-0.0218706 0.000818148 0)
(-0.0221482 0.000773186 0)
(-0.0224095 0.000726599 0)
(-0.0226539 0.00067842 0)
(-0.0228811 0.000628686 0)
(-0.0230903 0.000577439 0)
(-0.0232812 0.000524727 0)
(-0.0234532 0.000470604 0)
(-0.0236059 0.000415128 0)
(-0.0237388 0.000358366 0)
(-0.0238515 0.000300387 0)
(-0.0239436 0.00024127 0)
(-0.0240148 0.000181097 0)
(-0.0240647 0.000119958 0)
(-0.024093 5.79483e-05 0)
(-0.0240995 -4.83093e-06 0)
(-0.0240838 -6.8272e-05 0)
(-0.024046 -0.000132262 0)
(-0.0239857 -0.000196681 0)
(-0.0239028 -0.000261405 0)
(-0.0237974 -0.000326306 0)
(-0.0236694 -0.000391247 0)
(-0.0235188 -0.00045609 0)
(-0.0233457 -0.000520693 0)
(-0.0231502 -0.000584906 0)
(-0.0229325 -0.00064858 0)
(-0.0226928 -0.000711561 0)
(-0.0224314 -0.000773692 0)
(-0.0221487 -0.000834815 0)
(-0.021845 -0.00089477 0)
(-0.0215207 -0.000953397 0)
(-0.0211765 -0.00101053 0)
(-0.0208127 -0.00106602 0)
(-0.0204301 -0.00111969 0)
(-0.0200292 -0.0011714 0)
(-0.0196108 -0.00122098 0)
(-0.0191757 -0.00126828 0)
(-0.0187246 -0.00131315 0)
(-0.0182585 -0.00135545 0)
(-0.0177782 -0.00139503 0)
(-0.0172847 -0.00143177 0)
(-0.016779 -0.00146552 0)
(-0.0162621 -0.00149617 0)
(-0.0157352 -0.00152361 0)
(-0.0151992 -0.00154773 0)
(-0.0146555 -0.00156842 0)
(-0.0141052 -0.00158561 0)
(-0.0135494 -0.00159921 0)
(-0.0129895 -0.00160916 0)
(-0.0124266 -0.00161539 0)
(-0.0118621 -0.00161787 0)
(-0.0112972 -0.00161655 0)
(-0.0107332 -0.00161142 0)
(-0.0101715 -0.00160246 0)
(-0.0096133 -0.00158968 0)
(-0.00905993 -0.0015731 0)
(-0.00851267 -0.00155273 0)
(-0.00797281 -0.00152863 0)
(-0.00744161 -0.00150084 0)
(-0.0069203 -0.00146944 0)
(-0.0064101 -0.0014345 0)
(-0.00591218 -0.00139612 0)
(-0.00542771 -0.00135442 0)
(-0.00495778 -0.0013095 0)
(-0.00450346 -0.00126152 0)
(-0.00406576 -0.0012106 0)
(-0.00364564 -0.00115693 0)
(-0.003244 -0.00110068 0)
(-0.00286168 -0.00104203 0)
(-0.00249945 -0.000981197 0)
(-0.002158 -0.000918401 0)
(-0.00183795 -0.000853878 0)
(-0.00153981 -0.000787884 0)
(-0.00126404 -0.00072069 0)
(-0.00101096 -0.000652589 0)
(-0.000780821 -0.000583896 0)
(-0.000573738 -0.00051495 0)
(-0.000389716 -0.000446115 0)
(-0.000228631 -0.00037779 0)
(-9.02196e-05 -0.000310409 0)
(2.59307e-05 -0.000244444 0)
(0.000120394 -0.000180419 0)
(0.000193919 -0.000118915 0)
(0.000247441 -6.05741e-05 0)
(0.000282103 -6.1192e-06 0)
(0.000299266 4.36412e-05 0)
(0.000300534 8.77981e-05 0)
(0.000287762 0.000125332 0)
(0.000263081 0.000155103 0)
(0.000228905 0.000175858 0)
(0.000187956 0.000186237 0)
(0.000143276 0.000184826 0)
(9.81863e-05 0.000170234 0)
(5.62814e-05 0.000141234 0)
(2.25128e-05 9.69624e-05 0)
(4.21534e-06 3.72383e-05 0)
(2.11882e-06 -3.99254e-05 0)
(7.16987e-06 -7.94318e-05 0)
(1.04866e-05 -8.67948e-05 0)
(6.052e-06 -6.83813e-05 0)
(-1.06817e-05 -2.93316e-05 0)
(-4.314e-05 2.59426e-05 0)
(-9.40962e-05 9.36832e-05 0)
(-0.000165753 0.00017073 0)
(-0.000259794 0.000254448 0)
(-0.000377443 0.000342651 0)
(-0.000519527 0.000433543 0)
(-0.000686525 0.000525652 0)
(-0.000878616 0.000617783 0)
(-0.00109573 0.000708971 0)
(-0.00133757 0.000798441 0)
(-0.00160367 0.000885581 0)
(-0.00189342 0.000969908 0)
(-0.00220608 0.00105105 0)
(-0.00254081 0.00112873 0)
(-0.0028967 0.00120274 0)
(-0.00327279 0.00127294 0)
(-0.00366807 0.00133925 0)
(-0.0040815 0.0014016 0)
(-0.00451201 0.00145999 0)
(-0.00495853 0.00151444 0)
(-0.00542 0.00156497 0)
(-0.00589535 0.00161165 0)
(-0.00638351 0.00165454 0)
(-0.00688343 0.00169372 0)
(-0.00739408 0.00172927 0)
(-0.00791444 0.00176128 0)
(-0.00844352 0.00178984 0)
(-0.00898035 0.00181505 0)
(-0.00952395 0.00183698 0)
(-0.0100734 0.00185574 0)
(-0.0106278 0.00187141 0)
(-0.0111862 0.00188406 0)
(-0.0117478 0.00189377 0)
(-0.0123117 0.00190061 0)
(-0.0128771 0.00190465 0)
(-0.0134431 0.00190595 0)
(-0.0140089 0.00190456 0)
(-0.0145738 0.00190052 0)
(-0.0151369 0.00189389 0)
(-0.0156975 0.00188469 0)
(-0.0162548 0.00187296 0)
(-0.0168081 0.00185872 0)
(-0.0173565 0.001842 0)
(-0.0178994 0.00182281 0)
(-0.0184361 0.00180116 0)
(-0.0189657 0.00177707 0)
(-0.0194876 0.00175055 0)
(-0.020001 0.00172159 0)
(-0.0205053 0.00169021 0)
(-0.0209996 0.0016564 0)
(-0.0214833 0.00162018 0)
(-0.0219556 0.00158153 0)
(-0.0224159 0.00154046 0)
(-0.0228634 0.00149699 0)
(-0.0232974 0.00145111 0)
(-0.0237172 0.00140283 0)
(-0.0241221 0.00135217 0)
(-0.0245115 0.00129914 0)
(-0.0248846 0.00124376 0)
(-0.0252407 0.00118605 0)
(-0.0255792 0.00112604 0)
(-0.0258995 0.00106377 0)
(-0.0262008 0.000999275 0)
(-0.0264826 0.000932605 0)
(-0.0267442 0.000863811 0)
(-0.0269851 0.000792953 0)
(-0.0272046 0.000720099 0)
(-0.0274023 0.000645324 0)
(-0.0275775 0.000568711 0)
(-0.0277298 0.00049035 0)
(-0.0278588 0.000410341 0)
(-0.0279639 0.00032879 0)