/*--------------------------------*- C++ -*----------------------------------*\
| =========                 |                                                 |
| \\      /  F ield         | OpenFOAM: The Open Source CFD Toolbox           |
|  \\    /   O peration     | Version:  2.1.1                                 |
|   \\  /    A nd           | Web:      www.OpenFOAM.org                      |
|    \\/     M anipulation  |                                                 |
\*---------------------------------------------------------------------------*/
FoamFile
{
    version     2.0;
    format      ascii;
    class       volScalarField;
    location    "2";
    object      p;
}
// * * * * * * * * * * * * * * * * * * * * * * * * * * * * * * * * * * * * * //

dimensions      [0 2 -2 0 0 0 0];

internalField   nonuniform List<scalar> 
6561
(
9.22324e-09
-2.14076e-06
-6.41601e-05
-0.000183507
-0.000345838
-0.000538181
-0.000749163
-0.000969115
-0.00119008
-0.00140569
-0.00161094
-0.00180188
-0.00197552
-0.00212955
-0.00226227
-0.00237244
-0.00245914
-0.00252175
-0.00255981
-0.00257304
-0.00256122
-0.00252425
-0.00246204
-0.00237457
-0.00226185
-0.00212394
-0.00196095
-0.00177306
-0.00156055
-0.00132378
-0.00106325
-0.000779599
-0.000473638
-0.000146362
0.00020103
0.000567118
0.000950255
0.00134855
0.00175987
0.00218184
0.00261186
0.00304708
0.00348446
0.00392078
0.00435266
0.0047766
0.00518902
0.00558632
0.00596488
0.0063212
0.00665186
0.00695366
0.00722362
0.00745906
0.00765765
0.00781748
0.00793709
0.00801551
0.0080523
0.00804758
0.00800205
0.00791701
0.00779433
0.00763648
0.00744652
0.00722806
0.00698524
0.00672271
0.00644561
0.00615955
0.00587041
0.00558481
0.0053094
0.00505132
0.00481798
0.00461696
0.00445569
0.00434079
0.00427703
0.00426599
0.00429509
2.12313e-06
-2.66114e-08
-5.48761e-05
-0.000156219
-0.000292315
-0.000453979
-0.000632512
-0.000820179
-0.00101025
-0.0011971
-0.00137615
-0.00154369
-0.00169677
-0.00183308
-0.00195084
-0.00204868
-0.00212558
-0.00218076
-0.00221366
-0.00222388
-0.0022111
-0.00217514
-0.00211584
-0.00203313
-0.00192699
-0.00179746
-0.00164462
-0.00146867
-0.00126985
-0.00104854
-0.000805228
-0.000540534
-0.000255245
4.96813e-05
0.0003731
0.000713663
0.00106981
0.00143978
0.00182156
0.00221294
0.00261149
0.0030146
0.00341943
0.00382303
0.00422228
0.00461397
0.00499482
0.00536154
0.00571084
0.00603951
0.00634448
0.00662284
0.0068719
0.00708926
0.00727285
0.00742098
0.00753236
0.00760619
0.00764213
0.00764037
0.00760162
0.00752714
0.00741872
0.00727869
0.00710992
0.00691575
0.00670002
0.00646703
0.00622147
0.00596844
0.00571335
0.00546197
0.00522025
0.00499438
0.00479058
0.00461501
0.00447346
0.00437058
0.00430962
0.00429483
0.00432411
6.43097e-05
5.46962e-05
-5.67133e-07
-9.43568e-05
-0.00021687
-0.000360814
-0.000519313
-0.000685955
-0.00085505
-0.00102172
-0.00118188
-0.00133214
-0.00146975
-0.00159251
-0.00169867
-0.00178687
-0.00185603
-0.00190536
-0.00193422
-0.00194214
-0.00192877
-0.00189386
-0.00183723
-0.00175874
-0.00165836
-0.00153609
-0.001392
-0.00122626
-0.00103909
-0.000830846
-0.000601992
-0.00035312
-8.49761e-05
0.000201533
0.000505321
0.000825116
0.00115945
0.00150664
0.00186482
0.0022319
0.00260561
0.00298348
0.00336288
0.00374102
0.00411501
0.00448184
0.00483845
0.00518178
0.00550876
0.00581643
0.00610192
0.00636252
0.00659578
0.00679946
0.00697168
0.00711088
0.00721593
0.00728609
0.00732112
0.00732123
0.00728713
0.00722006
0.00712173
0.00699435
0.00684064
0.00666376
0.00646729
0.00625524
0.00603197
0.00580217
0.00557081
0.0053431
0.00512439
0.00492013
0.00473576
0.00457655
0.00444739
0.00435216
0.00429391
0.00427966
0.00431356
0.00018487
0.000156428
9.22278e-05
-2.49407e-06
-0.000120694
-0.000256294
-0.000403585
-0.000557245
-0.000712496
-0.000865171
-0.00101171
-0.00114913
-0.00127496
-0.00138719
-0.00148421
-0.00156471
-0.00162769
-0.00167233
-0.00169802
-0.00170427
-0.0016907
-0.00165703
-0.00160305
-0.0015286
-0.00143361
-0.00131806
-0.00118198
-0.00102551
-0.000848841
-0.000652291
-0.00043628
-0.000201357
5.17858e-05
0.000322302
0.000609173
0.000911205
0.00122701
0.00155502
0.00189346
0.00224037
0.00259359
0.00295081
0.00330952
0.00366709
0.00402079
0.00436776
0.00470513
0.00502997
0.0053394
0.0056306
0.00590086
0.00614764
0.00636859
0.00656163
0.00672498
0.00685718
0.00695717
0.00702428
0.0070583
0.00705947
0.00702849
0.00696654
0.00687529
0.00675687
0.00661384
0.00644921
0.00626638
0.00606912
0.0058615
0.00564789
0.00543288
0.00522125
0.00501788
0.00482766
0.00465546
0.00450598
0.00438363
0.00429201
0.00423432
0.00421871
0.00425148
0.000350528
0.000294132
0.000214303
0.000112901
-6.65764e-06
-0.000139374
-0.00028051
-0.00042576
-0.000571209
-0.000713389
-0.0008493
-0.00097639
-0.00109253
-0.00119595
-0.00128521
-0.00135917
-0.00141687
-0.00145758
-0.0014807
-0.00148576
-0.00147238
-0.00144026
-0.00138916
-0.00131893
-0.00122944
-0.00112065
-0.000992548
-0.000845231
-0.000678859
-0.000493693
-0.000290102
-6.85772e-05
0.000170254
0.000425613
0.000696562
0.000981988
0.0012806
0.00159092
0.00191128
0.00223984
0.00257455
0.00291321
0.00325347
0.00359282
0.00392864
0.00425822
0.00457882
0.00488764
0.00518194
0.005459
0.00571624
0.00595123
0.00616171
0.0063457
0.00650149
0.00662769
0.00672329
0.00678767
0.00682061
0.00682238
0.00679364
0.00673556
0.00664972
0.00653817
0.00640337
0.00624818
0.00607583
0.00588986
0.00569412
0.0054927
0.00528984
0.00508995
0.00489748
0.0047169
0.00455257
0.00440875
0.00428944
0.00419801
0.00413769
0.00411621
0.00413969
0.000549258
0.000459234
0.000358744
0.000246054
0.000120515
-1.3839e-05
-0.000153103
-0.000293902
-0.000433135
-0.000568006
-0.000696072
-0.000815236
-0.000923728
-0.00102007
-0.00110305
-0.00117167
-0.00122512
-0.00126273
-0.00128397
-0.0012884
-0.00127567
-0.00124546
-0.00119755
-0.00113173
-0.00104787
-0.000945876
-0.000825716
-0.000687427
-0.000531119
-0.000356996
-0.000165365
4.33515e-05
0.000268599
0.000509678
0.000765733
0.00103574
0.00131851
0.00161265
0.00191661
0.00222864
0.00254681
0.00286903
0.00319305
0.00351648
0.00383681
0.00415144
0.00445771
0.00475295
0.00503448
0.0052997
0.0055461
0.00577131
0.00597315
0.00614969
0.00629925
0.00642051
0.00651245
0.00657447
0.00660638
0.00660839
0.00658118
0.00652584
0.00644391
0.00633735
0.00620854
0.00606019
0.00589539
0.00571751
0.00553017
0.00533721
0.00514261
0.00495045
0.00476482
0.0045898
0.00442938
0.0042874
0.0041675
0.00407284
0.00400652
0.00397484
0.00398253
0.000770308
0.00064327
0.000518773
0.000391261
0.00025602
0.000116282
-2.47509e-05
-0.000164547
-0.000300755
-0.000431218
-0.000554035
-0.000667565
-0.000770416
-0.000861417
-0.000939597
-0.00100415
-0.00105442
-0.00108985
-0.00110998
-0.00111443
-0.00110287
-0.001075
-0.00103059
-0.00096943
-0.000891345
-0.000796212
-0.000683952
-0.000554548
-0.000408055
-0.000244609
-6.44453e-05
0.000132088
0.000344519
0.000572233
0.000814465
0.00107029
0.00133859
0.00161811
0.00190736
0.00220471
0.00250833
0.00281623
0.00312624
0.00343606
0.00374328
0.00404539
0.00433978
0.00462387
0.00489503
0.00515072
0.00538847
0.00560595
0.00580101
0.00597174
0.00611649
0.00623391
0.00632302
0.00638318
0.0064142
0.00641625
0.00638997
0.00633643
0.00625708
0.00615383
0.00602894
0.00588505
0.00572509
0.00555229
0.00537011
0.00518215
0.00499217
0.00480397
0.00462137
0.00444812
0.00428788
0.00414414
0.00402022
0.00391908
0.00384361
0.00379816
0.00378545
0.00100421
0.00083848
0.00068776
0.000542866
0.000395124
0.000247097
0.000101394
-4.02114e-05
-0.00017606
-0.00030459
-0.000424421
-0.000534362
-0.000633396
-0.000720671
-0.000795473
-0.000857208
-0.000905377
-0.000939558
-0.000959385
-0.000964536
-0.000954722
-0.000929678
-0.00088916
-0.000832946
-0.000760841
-0.000672679
-0.000568334
-0.000447732
-0.00031086
-0.000157784
1.13397e-05
0.000196247
0.000396552
0.000611734
0.000841121
0.00108388
0.00133901
0.00160532
0.00188145
0.00216584
0.00245675
0.00275229
0.00305036
0.00334875
0.0036451
0.00393695
0.00422178
0.00449701
0.00476006
0.00500842
0.00523962
0.00545134
0.00564145
0.005808
0.00594934
0.0060641
0.00615126
0.00621017
0.00624058
0.00624263
0.00621692
0.00616444
0.00608661
0.00598526
0.00586256
0.00572106
0.00556359
0.00539326
0.00521335
0.00502732
0.00483873
0.00465117
0.0044682
0.00429332
0.00412992
0.0039812
0.00385017
0.00373963
0.00365227
0.00359021
0.00355398
0.0012427
0.00103766
0.000859421
0.000695399
0.000533126
0.000374617
0.000221983
7.63142e-05
-6.13623e-05
-0.000190041
-0.000308836
-0.000416985
-0.000513848
-0.000598885
-0.000671648
-0.000731759
-0.000778894
-0.000812766
-0.000833115
-0.000839691
-0.000832251
-0.000810557
-0.00077437
-0.000723457
-0.000657593
-0.000576573
-0.000480219
-0.000368394
-0.000241015
-9.80685e-05
6.03722e-05
0.000234134
0.000422925
0.00062632
0.000843747
0.00107447
0.00131759
0.00157201
0.00183646
0.00210947
0.0023894
0.00267441
0.00296248
0.00325146
0.00353903
0.00382279
0.00410022
0.00436878
0.00462589
0.00486903
0.00509572
0.00530363
0.00549058
0.00565459
0.00579397
0.0059073
0.00599351
0.00605189
0.00608214
0.00608434
0.00605903
0.00600713
0.00593002
0.00582943
0.00570749
0.00556665
0.00540966
0.0052395
0.00505937
0.00487258
0.00468252
0.00449263
0.00430627
0.00412674
0.00395721
0.00380063
0.00365976
0.00353727
0.00343569
0.00335485
0.00329308
0.00147863
0.0012343
0.0010279
0.000843634
0.000665412
0.000494805
0.000333508
0.000181992
4.07063e-05
-8.98599e-05
-0.000209284
-0.000317219
-0.000413383
-0.000497547
-0.000569526
-0.000629159
-0.000676301
-0.000710806
-0.000732519
-0.000741271
-0.000736869
-0.000719101
-0.000687735
-0.000642527
-0.000583222
-0.000509573
-0.000421345
-0.000318335
-0.000200384
-6.73959e-05
8.06485e-05
0.000243671
0.000421478
0.000613748
0.00082001
0.00103963
0.00127181
0.00151554
0.00176966
0.00203277
0.0023033
0.0025795
0.00285939
0.00314087
0.00342166
0.00369937
0.0039715
0.00423549
0.00448877
0.00472877
0.00495297
0.005159
0.00534461
0.00550778
0.00564671
0.00575994
0.00584631
0.00590504
0.00593574
0.00593843
0.00591357
0.00586202
0.00578507
0.00568441
0.00556207
0.00542046
0.00526223
0.0050903
0.00490776
0.00471783
0.00452379
0.00432893
0.00413648
0.0039496
0.00377127
0.00360427
0.00345115
0.0033145
0.00319675
0.00309551
0.00300695
0.00170567
0.00142249
0.00118777
0.000982606
0.000787501
0.00060365
0.000432394
0.000273647
0.000127324
-6.5633e-06
-0.00012803
-0.00023712
-0.000333896
-0.000418431
-0.000490794
-0.00055104
-0.0005992
-0.000635269
-0.0006592
-0.000670901
-0.000670232
-0.000657008
-0.000631003
-0.000591958
-0.000539588
-0.000473599
-0.000393697
-0.000299608
-0.000191093
-6.79636e-05
6.9893e-05
0.0002225
0.000389769
0.000571483
0.000767278
0.000976627
0.00119882
0.00143297
0.00167799
0.00193256
0.00219519
0.00246417
0.0027376
0.0030134
0.0032893
0.00356293
0.00383178
0.00409327
0.00434477
0.00458368
0.00480742
0.00501352
0.00519967
0.00536374
0.00550385
0.00561843
0.00570622
0.00576633
0.00579829
0.00580203
0.0057779
0.00572669
0.00564963
0.00554831
0.00542473
0.00528119
0.00512032
0.00494496
0.00475813
0.00456299
0.00436273
0.00416056
0.00395963
0.00376298
0.00357347
0.00339376
0.00322624
0.00307353
0.00293799
0.00281508
0.00269896
0.00191817
0.00159686
0.00133394
0.00110761
0.000895062
0.000697196
0.000515049
0.00034802
0.000195535
5.71565e-05
-6.75385e-05
-0.000178965
-0.000277514
-0.000363546
-0.000437377
-0.00049927
-0.000549426
-0.000587977
-0.000614982
-0.000630425
-0.000634215
-0.000626193
-0.000606135
-0.000573766
-0.000528766
-0.000470792
-0.000399486
-0.000314498
-0.000215501
-0.000102214
2.55768e-05
0.000168002
0.000325082
0.000496712
0.000682637
0.000882438
0.00109551
0.00132107
0.00155809
0.00180538
0.00206148
0.00232475
0.00259333
0.00286516
0.003138
0.00340945
0.00367699
0.00393798
0.00418976
0.00442963
0.00465494
0.00486312
0.00505175
0.00521857
0.00536159
0.0054791
0.00556973
0.00563246
0.0056667
0.00567225
0.00564939
0.00559879
0.00552158
0.00541931
0.00529389
0.00514758
0.00498295
0.00480278
0.00461007
0.00440792
0.0041995
0.00398795
0.00377639
0.00356779
0.00336496
0.00317049
0.00298669
0.00281622
0.00266149
0.00251593
0.00237174
0.00211098
0.00175242
0.00146168
0.00121416
0.000983912
0.000771563
0.000577885
0.000401803
0.000242283
9.84712e-05
-3.04411e-05
-0.000145219
-0.000246566
-0.000335114
-0.000411415
-0.000475931
-0.000529026
-0.000570964
-0.000601902
-0.000621896
-0.0006309
-0.000628777
-0.000615301
-0.000590176
-0.000553046
-0.00050351
-0.000441143
-0.000365514
-0.000276205
-0.000172834
-5.50805e-05
7.72973e-05
0.000224436
0.000386344
0.000562884
0.000753748
0.000958442
0.00117627
0.00140632
0.00164744
0.00189829
0.00215724
0.00242249
0.00269199
0.00296351
0.00323462
0.00350276
0.00376525
0.00401934
0.00426225
0.00449122
0.00470354
0.00489667
0.00506821
0.00521601
0.00533822
0.00543329
0.00550008
0.00553783
0.00554622
0.00552539
0.00547592
0.00539884
0.00529559
0.00516803
0.00501837
0.00484912
0.00466306
0.00446314
0.00425246
0.00403417
0.00381142
0.00358731
0.00336481
0.00314674
0.00293565
0.00273385
0.00254411
0.00236897
0.0021999
0.00202723
0.00227939
0.00188455
0.00156653
0.00129801
0.00105002
0.000822956
0.000617343
0.000431663
0.000264449
0.000114453
-1.94957e-05
-0.000138495
-0.000243543
-0.00033553
-0.000415232
-0.000483296
-0.000540243
-0.000586456
-0.000622188
-0.000647559
-0.000662561
-0.000667073
-0.000660864
-0.000643611
-0.000614915
-0.000574314
-0.000521311
-0.000455387
-0.000376026
-0.000282744
-0.000175104
-5.27476e-05
8.45815e-05
0.000237015
0.000404534
0.000586949
0.000783876
0.000994722
0.00121867
0.00145466
0.00170139
0.00195733
0.00222067
0.00248939
0.00276125
0.0030338
0.00330443
0.0035704
0.00382885
0.00407691
0.00431167
0.00453029
0.00473006
0.00490842
0.00506304
0.00519188
0.00529321
0.00536572
0.00540846
0.00542097
0.00540323
0.00535569
0.00527926
0.00517531
0.0050456
0.00489229
0.00471787
0.00452508
0.00431688
0.00409638
0.00386676
0.00363121
0.00339284
0.00315469
0.00291962
0.00269022
0.00246883
0.00225843
0.00206174
0.00186835
0.00166681
0.00241897
0.00198892
0.00164426
0.00135508
0.0010895
0.000847674
0.000629912
0.000434272
0.000258879
0.000102109
-3.75542e-05
-0.000161521
-0.00027107
-0.000367336
-0.000451303
-0.000523797
-0.000585479
-0.000636847
-0.000678238
-0.000709828
-0.000731643
-0.000743569
-0.000745364
-0.000736673
-0.000717046
-0.000685958
-0.00064283
-0.000587051
-0.000518003
-0.000435088
-0.000337752
-0.000225513
-9.79849e-05
4.50899e-05
0.00020382
0.000378138
0.000567779
0.000772258
0.000990855
0.0012226
0.00146626
0.00172034
0.00198309
0.0022525
0.0025263
0.00280203
0.00307702
0.00334843
0.00361332
0.00386866
0.00411142
0.0043386
0.00454728
0.00473471
0.00489836
0.00503597
0.00514562
0.00522575
0.00527524
0.00529342
0.00528011
0.0052356
0.00516067
0.00505657
0.00492499
0.00476803
0.00458814
0.00438807
0.00417078
0.00393943
0.00369724
0.00344747
0.00319332
0.00293793
0.00268424
0.00243495
0.0021925
0.00196012
0.00174077
0.00152223
0.00129132
0.00252556
0.00206141
0.00169087
0.0013815
0.0010986
0.000842113
0.000612138
0.000406327
0.000222409
5.84057e-05
-8.75308e-05
-0.000217109
-0.000331872
-0.000433185
-0.00052223
-0.000599995
-0.000667274
-0.00072467
-0.000772592
-0.000811266
-0.000840741
-0.000860906
-0.000871499
-0.000872127
-0.000862283
-0.00084137
-0.000808724
-0.000763634
-0.000705374
-0.000633227
-0.000546511
-0.000444614
-0.000327018
-0.000193327
-4.32991e-05
0.000123129
0.000305815
0.000504392
0.000718244
0.000946492
0.00118798
0.00144127
0.00170465
0.00197611
0.00225339
0.00253398
0.00281514
0.00309396
0.00336738
0.00363222
0.00388528
0.00412337
0.00434337
0.00454231
0.0047174
0.00486616
0.0049864
0.00507634
0.00513461
0.00516033
0.0051531
0.00511304
0.00504076
0.00493739
0.00480454
0.00464422
0.00445887
0.00425122
0.00402429
0.00378127
0.00352548
0.00326028
0.00298901
0.00271492
0.00244112
0.00217046
0.00190552
0.00164985
0.00140673
0.00116215
0.000901208
0.00259522
0.00209814
0.00170254
0.00137353
0.0010737
0.000802771
0.000560639
0.000344562
0.00015189
-1.9702e-05
-0.000172375
-0.000308124
-0.000428742
-0.000535814
-0.000630705
-0.000714555
-0.000788281
-0.000852575
-0.000907914
-0.000954561
-0.000992584
-0.00102186
-0.00104211
-0.00105288
-0.00105362
-0.00104364
-0.00102219
-0.000988443
-0.000941567
-0.000880716
-0.000805075
-0.000713893
-0.000606509
-0.000482383
-0.000341132
-0.000182552
-6.65012e-06
0.000186329
0.000395885
0.000621236
0.000861312
0.00111474
0.00137984
0.00165463
0.00193683
0.0022239
0.00251304
0.00280124
0.00308529
0.00336189
0.00362763
0.00387912
0.00411301
0.00432606
0.00451523
0.00467775
0.00481116
0.00491338
0.00498279
0.00501823
0.00501908
0.00498521
0.00491709
0.00481568
0.00468247
0.00451941
0.00432889
0.00411367
0.00387679
0.00362153
0.00335132
0.00306966
0.00278006
0.00248594
0.00219064
0.00189717
0.00160836
0.00132809
0.00106003
0.000788406
0.000496565
0.00262417
0.00209539
0.00167562
0.00132761
0.00101131
0.000726254
0.000472115
0.00024577
4.42015e-05
-0.000135248
-0.000295046
-0.000437458
-0.000564519
-0.000678017
-0.00077949
-0.000870219
-0.000951231
-0.0010233
-0.00108696
-0.0011425
-0.00119
-0.00122932
-0.00126015
-0.00128198
-0.00129418
-0.00129599
-0.00128655
-0.00126494
-0.00123018
-0.00118129
-0.00111733
-0.0010374
-0.000940671
-0.000826465
-0.00069424
-0.000543643
-0.000374537
-0.00018703
1.85014e-05
0.000241388
0.000480651
0.000734991
0.00100278
0.00128205
0.00157054
0.00186565
0.00216452
0.00246404
0.00276088
0.00305154
0.00333245
0.00359995
0.00385046
0.00408044
0.00428656
0.00446572
0.00461516
0.00473246
0.00481569
0.0048634
0.00487467
0.00484914
0.00478704
0.00468917
0.00455687
0.00439202
0.00419696
0.00397445
0.00372759
0.00345976
0.00317453
0.00287556
0.00256656
0.00225122
0.00193308
0.00161543
0.00130135
0.000995147
0.000700899
0.000401059
7.72209e-05
0.00260882
0.00204962
0.00160662
0.0012403
0.000908077
0.000609277
0.000343355
0.000106815
-0.000103721
-0.000291235
-0.000458486
-0.000608004
-0.000742052
-0.000862611
-0.000971381
-0.00106977
-0.00115891
-0.00123965
-0.00131256
-0.00137795
-0.00143591
-0.00148627
-0.00152866
-0.00156255
-0.0015872
-0.00160177
-0.00160529
-0.00159671
-0.00157494
-0.00153885
-0.00148734
-0.00141936
-0.00133392
-0.00123017
-0.00110742
-0.000965139
-0.000803038
-0.000621075
-0.000419489
-0.000198824
4.00472e-05
0.00029591
0.000567198
0.000851987
0.001148
0.00145263
0.00176294
0.00207571
0.00238748
0.00269459
0.00299322
0.00327948
0.0035495
0.00379944
0.00402562
0.0042246
0.00439323
0.00452876
0.00462887
0.00469177
0.00471621
0.00470155
0.00464776
0.0045554
0.00442568
0.00426036
0.00406172
0.00383252
0.00357594
0.00329546
0.00299481
0.00267786
0.00234857
0.00201088
0.00166866
0.00132547
0.000984709
0.000651169
0.000329386
2.24035e-09
-0.000357202
0.00254572
0.00195742
0.0014922
0.00110832
0.000760783
0.000448679
0.000171256
-7.53515e-05
-0.000294874
-0.000490609
-0.000665601
-0.000822631
-0.00096418
-0.00109242
-0.00120919
-0.00131602
-0.00141414
-0.00150445
-0.00158757
-0.00166382
-0.00173326
-0.00179572
-0.00185076
-0.00189779
-0.00193598
-0.0019644
-0.00198195
-0.00198747
-0.00197972
-0.00195741
-0.0019193
-0.00186416
-0.00179084
-0.0016983
-0.00158567
-0.00145226
-0.00129759
-0.00112146
-0.00092396
-0.000705485
-0.000466787
-0.000208977
6.64526e-05
0.000357627
0.000662289
0.000977802
0.00130118
0.0016291
0.00195796
0.00228391
0.00260292
0.00291082
0.00320342
0.00347656
0.00372618
0.00394843
0.00413978
0.00429704
0.00441748
0.00449892
0.00453972
0.0045389
0.00449611
0.0044117
0.00428663
0.00412255
0.00392167
0.00368674
0.00342101
0.00312807
0.00281185
0.00247644
0.00212609
0.00176506
0.00139754
0.00102748
0.000658599
0.000296238
-5.45494e-05
-0.000415001
-0.000807221
0.00243155
0.00181557
0.00132918
0.000928553
0.000566341
0.000241424
-4.71724e-05
-0.000303677
-0.000532166
-0.000736244
-0.000919232
-0.00108416
-0.0012337
-0.00137022
-0.00149569
-0.00161176
-0.00171972
-0.00182055
-0.00191487
-0.00200302
-0.00208505
-0.00216073
-0.00222959
-0.00229094
-0.00234388
-0.00238735
-0.00242015
-0.00244098
-0.00244843
-0.00244109
-0.00241752
-0.00237632
-0.00231615
-0.00223579
-0.00213417
-0.00201041
-0.00186384
-0.00169409
-0.00150104
-0.00128496
-0.00104645
-0.000786484
-0.000506472
-0.000208218
0.00010605
0.000433694
0.000771675
0.00111658
0.00146467
0.0018119
0.002154
0.00248653
0.00280496
0.00310475
0.00338144
0.00363075
0.00384867
0.00403156
0.00417621
0.00427997
0.00434079
0.00435726
0.00432868
0.00425508
0.00413722
0.00397654
0.00377517
0.00353585
0.00326186
0.00295696
0.00262525
0.00227112
0.0018991
0.00151382
0.00111988
0.000721603
0.000323131
-6.9615e-05
-0.00045101
-0.000844255
-0.00127344
0.00226318
0.00162098
0.00111454
0.000698008
0.000321816
-1.53853e-05
-0.000314792
-0.000580991
-0.000818397
-0.00103092
-0.00122214
-0.00139532
-0.00155336
-0.00169875
-0.00183363
-0.00195974
-0.00207844
-0.00219074
-0.0022973
-0.00239846
-0.00249423
-0.00258435
-0.00266827
-0.00274523
-0.00281424
-0.00287411
-0.00292353
-0.00296103
-0.00298507
-0.00299405
-0.00298636
-0.0029604
-0.00291466
-0.00284769
-0.00275822
-0.00264515
-0.00250762
-0.00234503
-0.00215709
-0.00194387
-0.0017058
-0.00144372
-0.00115892
-0.000853103
-0.000528454
-0.000187595
0.000166401
0.000530043
0.00089945
0.0012704
0.00163836
0.00199861
0.00234626
0.00267637
0.00298403
0.00326449
0.00351322
0.00372604
0.00389922
0.00402959
0.00411457
0.0041523
0.00414165
0.00408229
0.00397467
0.00382004
0.00362039
0.00337843
0.00309748
0.00278144
0.00243462
0.0020617
0.00166758
0.00125728
0.000835828
0.000408016
-2.15699e-05
-0.000446362
-0.000860108
-0.00128809
-0.00175648
0.00203761
0.00137074
0.000845413
0.000413871
2.4428e-05
-0.000324495
-0.000634321
-0.000909988
-0.00115624
-0.00137729
-0.00157697
-0.00175877
-0.00192578
-0.00208067
-0.00222567
-0.00236263
-0.00249298
-0.00261776
-0.00273765
-0.00285298
-0.00296372
-0.00306956
-0.0031699
-0.00326388
-0.00335039
-0.00342815
-0.00349568
-0.0035514
-0.00359357
-0.00362044
-0.00363019
-0.00362103
-0.00359121
-0.0035391
-0.00346318
-0.00336212
-0.00323484
-0.0030805
-0.00289861
-0.002689
-0.00245193
-0.00218805
-0.00189851
-0.0015849
-0.00124932
-0.000894355
-0.000523093
-0.000139091
0.000253647
0.000650711
0.00104734
0.00143848
0.00181889
0.00218318
0.00252598
0.00284199
0.00312612
0.00337361
0.00358013
0.00374188
0.00385572
0.00391924
0.00393082
0.00388968
0.00379592
0.00365053
0.00345532
0.00321293
0.00292673
0.00260073
0.00223949
0.001848
0.00143152
0.000995547
0.000545588
8.69248e-05
-0.00037534
-0.000833935
-0.00128192
-0.00174679
-0.00225696
0.00175203
0.00106211
0.000519118
7.34987e-05
-0.000328432
-0.000688488
-0.00100832
-0.00129321
-0.00154824
-0.00177788
-0.00198624
-0.00217703
-0.00235351
-0.00251849
-0.00267435
-0.00282301
-0.00296595
-0.00310426
-0.00323862
-0.00336932
-0.00349633
-0.00361928
-0.00373747
-0.00384997
-0.00395556
-0.00405282
-0.00414015
-0.00421578
-0.00427784
-0.00432436
-0.00435333
-0.00436274
-0.00435062
-0.0043151
-0.00425441
-0.00416699
-0.00405147
-0.00390679
-0.00373219
-0.00352727
-0.00329206
-0.00302702
-0.0027331
-0.00241174
-0.00206493
-0.00169521
-0.00130564
-0.000899812
-0.000481848
-5.63274e-05
0.000371743
0.000797
0.0012138
0.00161633
0.00199866
0.00235495
0.00267946
0.00296679
0.00321192
0.00341038
0.00355836
0.0036528
0.00369151
0.0036732
0.00359754
0.00346517
0.00327769
0.00303762
0.00274835
0.00241401
0.00203939
0.0016298
0.00119096
0.000728808
0.000249417
-0.000241385
-0.000737934
-0.00123218
-0.00171645
-0.00222058
-0.00277541
0.00140379
0.00069253
0.000133156
-0.000325569
-0.000739194
-0.00110977
-0.00143918
-0.00173304
-0.00199675
-0.00223505
-0.00245232
-0.00265245
-0.0028389
-0.00301462
-0.00318209
-0.00334331
-0.00349982
-0.00365274
-0.00380274
-0.0039501
-0.00409475
-0.00423625
-0.00437384
-0.00450647
-0.00463283
-0.00475136
-0.00486031
-0.00495776
-0.00504163
-0.00510978
-0.00515997
-0.00518999
-0.0051976
-0.00518068
-0.00513721
-0.00506534
-0.00496344
-0.00483015
-0.00466444
-0.00446564
-0.00423351
-0.00396827
-0.00367065
-0.00334192
-0.00298391
-0.00259905
-0.00219037
-0.00176147
-0.00131655
-0.000860351
-0.000398114
6.44847e-05
0.000521406
0.000966346
0.00139285
0.00179442
0.00216466
0.00249743
0.00278696
0.00302801
0.003216
0.00334715
0.00341858
0.00342839
0.00337573
0.00326082
0.00308498
0.00285057
0.00256094
0.00222034
0.00183378
0.00140693
0.000945946
0.000457309
-5.23264e-05
-0.00057652
-0.00110899
-0.00164083
-0.00216356
-0.00270956
-0.00331223
0.000990474
0.00025965
-0.000314772
-0.000785594
-0.00121009
-0.00159055
-0.00192909
-0.00223166
-0.00250396
-0.002751
-0.00297739
-0.00318724
-0.00338417
-0.00357127
-0.00375111
-0.00392579
-0.00409688
-0.00426552
-0.00443239
-0.00459775
-0.00476147
-0.00492306
-0.00508167
-0.00523617
-0.00538511
-0.00552681
-0.00565936
-0.00578068
-0.0058885
-0.00598046
-0.00605412
-0.00610701
-0.00613666
-0.00614065
-0.00611668
-0.00606262
-0.00597651
-0.0058567
-0.00570184
-0.00551096
-0.0052835
-0.00501942
-0.00471917
-0.00438381
-0.00401496
-0.00361493
-0.00318663
-0.00273367
-0.0022603
-0.00177137
-0.00127235
-0.000769229
-0.000268444
0.000223205
0.000698678
0.00115081
0.00157248
0.00195673
0.00229695
0.00258705
0.00282156
0.00299589
0.00310633
0.00315028
0.00312626
0.00303398
0.0028744
0.00264964
0.00236297
0.00201872
0.00162212
0.00117922
0.00069662
0.000181395
-0.00035916
-0.000917939
-0.00148797
-0.00205943
-0.00262294
-0.00321363
-0.00386765
0.00050986
-0.000238667
-0.000826751
-0.00130862
-0.00174315
-0.00213284
-0.00248006
-0.00279107
-0.00307185
-0.00332771
-0.00356345
-0.00378339
-0.00399132
-0.00419044
-0.00438345
-0.00457249
-0.0047592
-0.00494472
-0.00512972
-0.00531446
-0.00549875
-0.00568203
-0.00586339
-0.00604157
-0.00621502
-0.00638192
-0.00654021
-0.00668762
-0.0068217
-0.00693988
-0.00703948
-0.00711777
-0.00717201
-0.00719951
-0.00719766
-0.00716398
-0.00709621
-0.00699234
-0.00685068
-0.0066699
-0.00644912
-0.00618796
-0.00588657
-0.00554572
-0.00516681
-0.00475193
-0.00430388
-0.0038262
-0.00332314
-0.00279966
-0.00226142
-0.0017147
-0.00116634
-0.000623641
-9.42525e-05
0.000413958
0.000893063
0.00133524
0.00173294
0.00207911
0.00236732
0.00259198
0.0027485
0.00283339
0.00284446
0.00278078
0.00264283
0.00243243
0.00215271
0.00180803
0.00140384
0.000946516
0.000443189
-9.84637e-05
-0.000670447
-0.00126492
-0.00187416
-0.00248733
-0.00309408
-0.00373248
-0.00444168
-4.00282e-05
-0.000804324
-0.00140463
-0.00189648
-0.00234016
-0.00273842
-0.00309386
-0.00341302
-0.0037022
-0.00396693
-0.00421225
-0.00444267
-0.00466212
-0.00487394
-0.0050809
-0.00528524
-0.00548861
-0.00569218
-0.00589663
-0.00610217
-0.00630857
-0.00651522
-0.00672111
-0.00692488
-0.00712488
-0.00731914
-0.00750543
-0.00768132
-0.00784415
-0.00799114
-0.00811936
-0.00822582
-0.0083075
-0.00836139
-0.00838456
-0.00837419
-0.00832765
-0.00824256
-0.00811684
-0.00794878
-0.00773712
-0.00748108
-0.00718048
-0.00683574
-0.00644797
-0.00601902
-0.0055515
-0.00504882
-0.00451519
-0.00395565
-0.00337599
-0.00278278
-0.00218323
-0.00158516
-0.000996835
-0.000426871
0.000115956
0.000622878
0.00108534
0.00149518
0.0018449
0.00212781
0.00233823
0.00247172
0.00252517
0.00249692
0.00238683
0.00219632
0.00192829
0.00158709
0.00117832
0.000708729
0.000185961
-0.000381653
-0.000985361
-0.00161652
-0.00226659
-0.00292361
-0.00357617
-0.00426553
-0.00503403
-0.000660916
-0.00143898
-0.00205003
-0.00255075
-0.00300269
-0.00340884
-0.00377201
-0.00409906
-0.00439653
-0.00467021
-0.00492534
-0.0051666
-0.00539809
-0.00562327
-0.00584499
-0.00606555
-0.00628665
-0.00650947
-0.00673468
-0.00696247
-0.00719257
-0.0074243
-0.00765657
-0.00788793
-0.0081166
-0.00834046
-0.00855715
-0.00876404
-0.00895829
-0.00913686
-0.00929659
-0.00943423
-0.00954644
-0.00962989
-0.0096813
-0.00969749
-0.00967544
-0.00961235
-0.00950572
-0.00935342
-0.00915375
-0.00890552
-0.00860811
-0.00826157
-0.00786665
-0.00742488
-0.00693863
-0.00641112
-0.00584647
-0.00524972
-0.00462678
-0.00398444
-0.00333028
-0.00267261
-0.00202033
-0.00138283
-0.000769784
-0.000190969
0.000343943
0.000825623
0.00124532
0.00159511
0.00186811
0.00205871
0.00216275
0.00217767
0.0021026
0.00193839
0.00168763
0.00135456
0.000944929
0.000465804
-7.46408e-05
-0.000667381
-0.00130285
-0.00197154
-0.002664
-0.00336703
-0.00406809
-0.00481183
-0.00564408
-0.00135425
-0.00214401
-0.00276429
-0.00327276
-0.00373205
-0.0041454
-0.00451582
-0.00485046
-0.00515611
-0.00543879
-0.00570395
-0.00595644
-0.00620049
-0.00643967
-0.00667694
-0.00691464
-0.00715453
-0.00739779
-0.0076451
-0.0078966
-0.00815201
-0.00841057
-0.00867111
-0.00893209
-0.00919161
-0.00944743
-0.00969701
-0.00993755
-0.010166
-0.0103791
-0.0105734
-0.0107454
-0.0108915
-0.011008
-0.0110911
-0.0111374
-0.0111435
-0.011106
-0.011022
-0.010889
-0.0107046
-0.0104673
-0.010176
-0.00983031
-0.00943046
-0.00897767
-0.00847396
-0.00792231
-0.00732668
-0.00669204
-0.00602435
-0.00533059
-0.00461867
-0.00389736
-0.00317621
-0.00246539
-0.00177549
-0.00111738
-0.000501931
6.02363e-05
0.000559006
0.000985054
0.00133012
0.00158725
0.00175106
0.0018179
0.00178596
0.00165544
0.00142846
0.00110905
0.000703024
0.000217756
-0.000338052
-0.000954653
-0.00162161
-0.00232847
-0.00306478
-0.00381601
-0.00456832
-0.00537009
-0.00627081
-0.0021212
-0.00292055
-0.0035485
-0.00406356
-0.00452929
-0.00494913
-0.00532631
-0.00566824
-0.00598196
-0.00627369
-0.00654907
-0.00681314
-0.00707024
-0.00732406
-0.00757765
-0.0078334
-0.00809311
-0.00835799
-0.0086287
-0.00890538
-0.00918769
-0.00947483
-0.00976555
-0.0100582
-0.0103508
-0.010641
-0.010926
-0.011203
-0.0114685
-0.0117192
-0.0119514
-0.0121612
-0.0123446
-0.0124977
-0.0126165
-0.0126968
-0.0127348
-0.0127269
-0.0126695
-0.0125596
-0.0123944
-0.0121718
-0.01189
-0.0115482
-0.0111463
-0.0106848
-0.0101655
-0.00959095
-0.00896494
-0.00829226
-0.00757887
-0.00683186
-0.0060594
-0.00527073
-0.00447598
-0.00368612
-0.00291271
-0.00216775
-0.00146337
-0.000811622
-0.00022411
0.00028828
0.000715716
0.00104972
0.00128347
0.00141199
0.00143241
0.00134401
0.00114831
0.000849033
0.000451945
-3.53204e-05
-0.000603545
-0.00124224
-0.00194003
-0.00268544
-0.00346693
-0.0042685
-0.00507491