/*--------------------------------*- C++ -*----------------------------------*\
| =========                 |                                                 |
| \\      /  F ield         | OpenFOAM: The Open Source CFD Toolbox           |
|  \\    /   O peration     | Version:  2.1.1                                 |
|   \\  /    A nd           | Web:      www.OpenFOAM.org                      |
|    \\/     M anipulation  |                                                 |
\*---------------------------------------------------------------------------*/
FoamFile
{
    version     2.0;
    format      ascii;
    class       volScalarField;
    location    "1.4";
    object      p;
}
// * * * * * * * * * * * * * * * * * * * * * * * * * * * * * * * * * * * * * //

dimensions      [0 2 -2 0 0 0 0];

internalField   nonuniform List<scalar> 
25921
(
3.2745e-09
1.19152e-05
1.2921e-05
-2.27763e-06
-3.41268e-05
-8.17869e-05
-0.000143705
-0.00021801
-0.000302789
-0.000396209
-0.000496567
-0.000602299
-0.000711991
-0.000824365
-0.000938276
-0.0010527
-0.00116673
-0.00127955
-0.00139044
-0.00149877
-0.00160398
-0.00170558
-0.00180314
-0.00189628
-0.00198469
-0.00206808
-0.0021462
-0.00221886
-0.00228587
-0.00234708
-0.00240237
-0.00245163
-0.00249477
-0.00253172
-0.00256241
-0.0025868
-0.00260485
-0.00261652
-0.00262178
-0.00262063
-0.00261303
-0.00259899
-0.00257848
-0.00255151
-0.00251807
-0.00247816
-0.00243178
-0.00237894
-0.00231964
-0.00225389
-0.00218171
-0.00210311
-0.00201812
-0.00192676
-0.00182906
-0.00172506
-0.0016148
-0.00149834
-0.00137574
-0.00124705
-0.00111237
-0.000971779
-0.000825371
-0.00067326
-0.000515566
-0.000352425
-0.000183985
-1.04061e-05
0.000168135
0.000351449
0.000539329
0.000731555
0.000927891
0.00112809
0.00133187
0.00153896
0.00174906
0.00196185
0.002177
0.00239417
0.00261299
0.0028331
0.00305411
0.00327562
0.00349721
0.00371846
0.00393894
0.00415822
0.00437584
0.00459134
0.00480428
0.00501418
0.00522058
0.00542302
0.00562102
0.00581415
0.00600192
0.00618391
0.00635966
0.00652875
0.00669076
0.00684528
0.00699194
0.00713035
0.00726018
0.00738109
0.00749278
0.00759497
0.0076874
0.00776986
0.00784215
0.0079041
0.00795559
0.00799652
0.00802682
0.00804646
0.00805547
0.00805388
0.00804177
0.00801927
0.00798654
0.00794378
0.00789121
0.00782913
0.00775783
0.00767767
0.00758904
0.00749235
0.00738807
0.0072767
0.00715875
0.00703479
0.00690541
0.00677124
0.00663293
0.00649118
0.00634668
0.00620019
0.00605247
0.00590432
0.00575656
0.00561004
0.00546562
0.00532421
0.00518671
0.00505407
0.00492725
0.00480724
0.00469501
0.00459159
0.00449797
0.00441515
0.00434409
0.00428568
0.00424067
0.00420959
0.00419253
0.00418885
0.00419663
0.00421203
0.00422788
-1.19033e-05
1.87397e-08
-1.30153e-06
-1.7275e-05
-4.71162e-05
-9.03456e-05
-0.000145974
-0.000212629
-0.000288818
-0.000373046
-0.000463867
-0.00055992
-0.000659943
-0.000762773
-0.000867356
-0.000972733
-0.00107804
-0.00118251
-0.00128544
-0.00138621
-0.00148429
-0.00157917
-0.00167044
-0.00175772
-0.00184067
-0.00191901
-0.00199249
-0.00206088
-0.00212401
-0.0021817
-0.00223383
-0.00228027
-0.00232092
-0.0023557
-0.00238454
-0.00240738
-0.00242417
-0.00243486
-0.00243943
-0.00243784
-0.00243007
-0.00241611
-0.00239594
-0.00236956
-0.00233694
-0.0022981
-0.00225302
-0.00220172
-0.00214419
-0.00208045
-0.00201051
-0.00193438
-0.00185209
-0.00176366
-0.00166913
-0.00156853
-0.0014619
-0.00134931
-0.0012308
-0.00110645
-0.00097633
-0.000840533
-0.000699155
-0.000552304
-0.000400101
-0.000242677
-8.0178e-05
8.72379e-05
0.000259399
0.000436119
0.000617199
0.000802424
0.000991563
0.00118437
0.0013806
0.00157996
0.00178216
0.00198692
0.00219389
0.00240277
0.00261319
0.00282479
0.00303722
0.00325008
0.00346298
0.00367551
0.00388726
0.00409781
0.00430673
0.00451358
0.00471794
0.00491934
0.00511736
0.00531155
0.00550146
0.00568667
0.00586672
0.00604121
0.00620971
0.00637181
0.00652712
0.00667525
0.00681584
0.00694854
0.00707302
0.00718898
0.00729611
0.00739417
0.00748292
0.00756214
0.00763166
0.00769132
0.00774101
0.00778064
0.00781015
0.00782952
0.00783876
0.00783793
0.00782711
0.00780643
0.00777603
0.00773612
0.00768692
0.00762871
0.00756177
0.00748647
0.00740316
0.00731225
0.0072142
0.00710946
0.00699856
0.00688203
0.00676043
0.00663438
0.00650449
0.00637142
0.00623586
0.00609851
0.0059601
0.00582138
0.00568315
0.00554619
0.00541133
0.0052794
0.00515127
0.0050278
0.00490988
0.0047984
0.00469426
0.00459835
0.00451153
0.00443466
0.00436851
0.00431375
0.0042709
0.00424025
0.00422169
0.00421449
0.0042171
0.00422788
0.00424374
-1.29271e-05
1.35228e-06
3.07781e-08
-1.58443e-05
-4.42303e-05
-8.45692e-05
-0.000136046
-0.000197516
-0.000267727
-0.000345402
-0.000429285
-0.000518172
-0.000610926
-0.000706489
-0.000803884
-0.00090222
-0.00100068
-0.00109854
-0.00119512
-0.00128983
-0.00138214
-0.00147157
-0.00155771
-0.00164016
-0.00171862
-0.00179278
-0.00186239
-0.00192723
-0.00198711
-0.00204185
-0.00209132
-0.00213538
-0.00217393
-0.00220688
-0.00223415
-0.00225568
-0.0022714
-0.00228127
-0.00228525
-0.0022833
-0.00227541
-0.00226154
-0.00224168
-0.00221581
-0.00218393
-0.00214603
-0.0021021
-0.00205215
-0.00199618
-0.00193419
-0.00186621
-0.00179224
-0.0017123
-0.00162643
-0.00153464
-0.00143699
-0.00133351
-0.00122426
-0.0011093
-0.000988681
-0.000862496
-0.000730826
-0.000593768
-0.000451428
-0.000303924
-0.000151388
6.04059e-06
0.000168205
0.000334938
0.000506059
0.000681371
0.000860666
0.00104372
0.0012303
0.00142015
0.001613
0.00180857
0.00200658
0.00220671
0.00240863
0.00261202
0.00281653
0.0030218
0.00322746
0.00343312
0.00363841
0.00384291
0.00404623
0.00424794
0.00444764
0.0046449
0.00483929
0.00503039
0.00521778
0.00540102
0.00557971
0.00575342
0.00592174
0.00608428
0.00624064
0.00639045
0.00653334
0.00666896
0.00679698
0.00691708
0.00702896
0.00713237
0.00722704
0.00731276
0.00738932
0.00745656
0.00751433
0.00756253
0.00760107
0.0076299
0.00764901
0.00765842
0.00765817
0.00764836
0.0076291
0.00760056
0.00756291
0.0075164
0.00746127
0.00739783
0.0073264
0.00724734
0.00716106
0.00706798
0.00696856
0.0068633
0.0067527
0.00663733
0.00651776
0.00639459
0.00626845
0.00614
0.00600992
0.0058789
0.00574767
0.00561697
0.00548757
0.00536023
0.00523574
0.00511493
0.00499859
0.00488755
0.00478264
0.00468466
0.00459443
0.00451272
0.00444027
0.00437773
0.00432568
0.00428452
0.00425446
0.00423545
0.0042269
0.00422784
0.00423865
0.00425915
2.26487e-06
1.73563e-05
1.59043e-05
-1.68822e-08
-2.76797e-05
-6.63557e-05
-0.000115242
-0.000173286
-0.000239369
-0.000312364
-0.000391147
-0.000474642
-0.000561818
-0.000651706
-0.000743409
-0.000836094
-0.000929
-0.00102143
-0.00111276
-0.00120241
-0.00128988
-0.0013747
-0.00145645
-0.00153479
-0.00160937
-0.00167992
-0.00174617
-0.00180791
-0.00186494
-0.00191709
-0.00196421
-0.00200618
-0.00204287
-0.0020742
-0.00210008
-0.00212044
-0.00213521
-0.00214436
-0.00214783
-0.00214558
-0.00213759
-0.00212383
-0.00210427
-0.00207891
-0.00204773
-0.00201071
-0.00196786
-0.00191917
-0.00186464
-0.00180429
-0.00173811
-0.00166614
-0.00158838
-0.00150485
-0.0014156
-0.00132066
-0.00122007
-0.00111388
-0.00100215
-0.000884948
-0.000762345
-0.000634427
-0.000501289
-0.000363036
-0.000219783
-7.16569e-05
8.12025e-05
0.000238644
0.000400504
0.000566606
0.00073676
0.000910761
0.00108839
0.00126942
0.00145361
0.00164069
0.00183039
0.00202244
0.00221652
0.00241232
0.00260953
0.0028078
0.0030068
0.00320615
0.00340549
0.00360444
0.00380262
0.00399963
0.00419508
0.00438856
0.00457966
0.00476797
0.00495309
0.00513459
0.00531207
0.00548513
0.00565336
0.00581638
0.00597378
0.00612521
0.00627028
0.00640866
0.00654001
0.006664
0.00678033
0.00688873
0.00698893
0.00708069
0.0071638
0.00723807
0.00730333
0.00735947
0.00740636
0.00744394
0.00747216
0.00749101
0.00750052
0.00750072
0.00749172
0.00747363
0.00744661
0.00741083
0.00736653
0.00731397
0.00725342
0.00718521
0.00710969
0.00702726
0.00693832
0.00684332
0.00674274
0.00663708
0.00652687
0.00641268
0.00629508
0.00617469
0.00605213
0.00592805
0.00580313
0.00567806
0.00555355
0.00543032
0.00530911
0.00519068
0.00507577
0.00496517
0.00485962
0.00475991
0.00466679
0.00458098
0.00450321
0.00443413
0.00437434
0.00432435
0.00428456
0.0042552
0.00423635
0.00422767
0.0042287
0.0042413
0.00426702
3.41978e-05
4.7311e-05
4.43385e-05
2.75501e-05
-2.16791e-07
-3.81356e-05
-8.54034e-05
-0.00014104
-0.00020403
-0.000273362
-0.000348034
-0.000427074
-0.000509551
-0.000594583
-0.000681344
-0.000769066
-0.00085704
-0.000944616
-0.0010312
-0.00111625
-0.00119928
-0.00127984
-0.00135755
-0.00143204
-0.001503
-0.00157015
-0.00163324
-0.00169205
-0.00174638
-0.00179606
-0.00184095
-0.00188091
-0.00191582
-0.0019456
-0.00197015
-0.0019894
-0.00200328
-0.00201175
-0.00201474
-0.00201223
-0.00200417
-0.00199054
-0.00197131
-0.00194647
-0.001916
-0.00187988
-0.00183812
-0.0017907
-0.00173763
-0.00167892
-0.00161456
-0.00154458
-0.00146899
-0.00138782
-0.00130109
-0.00120884
-0.00111112
-0.00100797
-0.000899441
-0.000785608
-0.00066654
-0.000542321
-0.00041304
-0.000278802
-0.000139719
4.08651e-06
0.000152478
0.000305308
0.000462417
0.000623634
0.000788773
0.000957636
0.00113001
0.00130568
0.00148439
0.00166591
0.00184995
0.00203626
0.00222453
0.00241447
0.00260576
0.00279807
0.00299106
0.00318439
0.00337771
0.00357064
0.00376281
0.00395384
0.00414334
0.00433093
0.0045162
0.00469877
0.00487822
0.00505417
0.00522622
0.00539398
0.00555706
0.00571507
0.00586765
0.00601444
0.00615507
0.00628922
0.00641655
0.00653677
0.00664957
0.00675469
0.00685188
0.0069409
0.00702156
0.00709367
0.00715708
0.00721166
0.00725732
0.00729397
0.0073216
0.00734017
0.00734973
0.00735032
0.00734202
0.00732497
0.0072993
0.00726522
0.00722292
0.00717267
0.00711475
0.00704946
0.00697716
0.00689821
0.00681303
0.00672205
0.00662573
0.00652455
0.00641904
0.00630973
0.00619718
0.00608199
0.00596475
0.0058461
0.00572668
0.00560716
0.0054882
0.0053705
0.00525477
0.00514171
0.00503204
0.00492649
0.00482576
0.00473058
0.00464165
0.00455964
0.00448521
0.00441897
0.00436148
0.00431322
0.00427458
0.00424588
0.0042273
0.00421875
0.00422012
0.00423424
0.00426362
8.21459e-05
9.08242e-05
8.48488e-05
6.61964e-05
3.73998e-05
-6.88912e-07
-4.72807e-05
-0.000101467
-0.000162327
-0.000228948
-0.000300433
-0.000375905
-0.000454523
-0.000535486
-0.000618039
-0.000701476
-0.000785143
-0.000868432
-0.00095079
-0.00103171
-0.00111072
-0.00118742
-0.00126141
-0.00133237
-0.00139998
-0.00146398
-0.00152412
-0.00158019
-0.00163199
-0.00167935
-0.00172213
-0.0017602
-0.00179345
-0.00182176
-0.00184506
-0.00186326
-0.00187631
-0.00188414
-0.00188671
-0.00188396
-0.00187587
-0.0018624
-0.00184353
-0.00181923
-0.00178949
-0.00175429
-0.00171363
-0.00166749
-0.00161589
-0.00155881
-0.00149627
-0.00142827
-0.00135484
-0.001276
-0.00119177
-0.00110219
-0.0010073
-0.00090714
-0.000801771
-0.000691252
-0.000575655
-0.00045506
-0.000329555
-0.00019924
-6.42234e-05
7.53737e-05
0.00021942
0.000367773
0.000520278
0.000676767
0.000837061
0.00100097
0.00116828
0.00133879
0.00151225
0.00168842
0.00186706
0.00204788
0.00223061
0.00241496
0.00260061
0.00278725
0.00297455
0.00316218
0.00334979
0.00353703
0.00372353
0.00390891
0.00409282
0.00427487
0.00445467
0.00463184
0.00480599
0.00497674
0.00514371
0.00530651
0.00546477
0.00561812
0.0057662
0.00590866
0.00604516
0.00617536
0.00629896
0.00641566
0.00652518
0.00662725
0.00672163
0.00680811
0.00688648
0.00695658
0.00701825
0.00707137
0.00711585
0.00715163
0.00717867
0.00719696
0.00720652
0.00720742
0.00719974
0.00718359
0.00715913
0.00712654
0.00708603
0.00703785
0.00698228
0.00691961
0.00685019
0.00677438
0.00669257
0.00660519
0.00651269
0.00641553
0.00631423
0.00620929
0.00610126
0.00599072
0.00587824
0.00576443
0.0056499
0.00553529
0.00542125
0.00530844
0.00519752
0.00508917
0.00498407
0.0048829
0.00478632
0.00469502
0.00460963
0.00453081
0.00445915
0.00439524
0.00433958
0.00429267
0.00425491
0.00422667
0.00420824
0.00419969
0.00420115
0.00421599
0.00424712
0.000144692
0.00014701
0.000136705
0.000115194
8.44373e-05
4.52647e-05
-1.56301e-06
-5.5215e-05
-0.000114859
-0.000179675
-0.000248855
-0.000321611
-0.000397184
-0.000474849
-0.000553918
-0.000633747
-0.000713733
-0.000793315
-0.00087198
-0.000949252
-0.0010247
-0.00109793
-0.00116858
-0.00123633
-0.0013009
-0.00136201
-0.00141944
-0.00147297
-0.00152243
-0.00156765
-0.00160848
-0.0016448
-0.00167648
-0.00170344
-0.00172557
-0.00174282
-0.0017551
-0.00176236
-0.00176455
-0.00176162
-0.00175354
-0.00174027
-0.00172178
-0.00169805
-0.00166905
-0.00163479
-0.00159523
-0.00155038
-0.00150023
-0.00144478
-0.00138404
-0.00131802
-0.00124672
-0.00117018
-0.00108842
-0.00100146
-0.00090935
-0.000812127
-0.000709846
-0.000602567
-0.000490356
-0.000373291
-0.000251457
-0.00012495
6.12391e-06
0.000141649
0.000281499
0.000425535
0.000573607
0.000725553
0.000881198
0.00104036
0.00120283
0.00136841
0.00153686
0.00170796
0.00188146
0.00205708
0.00223456
0.00241362
0.00259395
0.00277525
0.0029572
0.00313947
0.00332173
0.00350363
0.00368482
0.00386494
0.00404362
0.0042205
0.00439521
0.00456736
0.0047366
0.00490253
0.00506478
0.005223
0.00537681
0.00552585
0.00566978
0.00580825
0.00594093
0.00606751
0.00618767
0.00630114
0.00640763
0.00650689
0.0065987
0.00668283
0.00675909
0.00682732
0.00688738
0.00693915
0.00698254
0.00701748
0.00704395
0.00706194
0.00707148
0.00707262
0.00706544
0.00705007
0.00702666
0.00699537
0.00695643
0.00691007
0.00685656
0.0067962
0.00672932
0.00665627
0.00657744
0.00649324
0.00640411
0.0063105
0.0062129
0.00611181
0.00600776
0.0059013
0.00579299
0.00568341
0.00557316
0.00546284
0.00535307
0.00524448
0.00513771
0.0050334
0.00493219
0.00483472
0.00474163
0.00465354
0.00457108
0.00449483
0.00442537
0.00436325
0.00430896
0.00426298
0.00422574
0.00419764
0.00417906
0.00417018
0.00417127
0.00418586
0.00421693
0.000220108
0.000214607
0.000198851
0.000173567
0.000139985
9.88828e-05
5.09847e-05
-2.96324e-06
-6.22167e-05
-0.00012604
-0.00019371
-0.00026452
-0.000337787
-0.000412858
-0.000489109
-0.000565954
-0.000642843
-0.000719261
-0.000794733
-0.000868823
-0.000941126
-0.00101127
-0.00107894
-0.00114381
-0.00120561
-0.0012641
-0.00131906
-0.00137028
-0.00141759
-0.00146083
-0.00149986
-0.00153456
-0.00156481
-0.00159051
-0.00161159
-0.00162796
-0.00163955
-0.00164631
-0.00164818
-0.00164512
-0.00163709
-0.00162405
-0.00160598
-0.00158284
-0.00155462
-0.0015213
-0.00148286
-0.0014393
-0.00139061
-0.00133679
-0.00127785
-0.00121378
-0.0011446
-0.00107034
-0.000991001
-0.000906627
-0.000817248
-0.000722906
-0.000623651
-0.000519539
-0.000410633
-0.000297008
-0.000178746
-5.59377e-05
7.13149e-05
0.0002029
0.000338696
0.000478568
0.000622371
0.00076995
0.000921137
0.00107575
0.0012336
0.00139447
0.00155816
0.00172443
0.00189303
0.00206373
0.00223625
0.0024103
0.00258562
0.00276189
0.00293881
0.00311605
0.0032933
0.00347021
0.00364644
0.00382164
0.00399546
0.00416754
0.00433752
0.00450502
0.00466969
0.00483116
0.00498907
0.00514306
0.00529276
0.00543784
0.00557795
0.00571275
0.00584193
0.00596517
0.00608218
0.00619268
0.0062964
0.00639309
0.00648253
0.0065645
0.00663883
0.00670535
0.00676392
0.00681444
0.0068568
0.00689097
0.00691689
0.00693458
0.00694405
0.00694537
0.00693861
0.0069239
0.00690138
0.00687122
0.00683364
0.00678886
0.00673715
0.0066788
0.00661414
0.00654351
0.00646729
0.00638587
0.00629968
0.00620916
0.0061148
0.00601707
0.00591648
0.00581357
0.00570887
0.00560296
0.00549639
0.00538975
0.00528364
0.00517866
0.00507541
0.00497451
0.00487656
0.00478217
0.00469194
0.00460646
0.00452632
0.00445208
0.00438428
0.00432343
0.00427004
0.00422456
0.00418743
0.00415908
0.00413995
0.00413027
0.00413039
0.00414375
0.00417322
0.000306623
0.000292228
0.000270122
0.000240271
0.000203092
0.000159302
0.000109585
5.45969e-05
-5.00358e-06
-6.85626e-05
-0.000135436
-0.000204993
-0.000276624
-0.00034974
-0.000423782
-0.000498218
-0.000572549
-0.000646308
-0.000719058
-0.000790399
-0.00085996
-0.0009274
-0.000992409
-0.00105471
-0.00111403
-0.00117016
-0.00122287
-0.00127199
-0.00131735
-0.00135879
-0.00139618
-0.00142939
-0.00145833
-0.0014829
-0.00150302
-0.0015186
-0.00152958
-0.00153591
-0.00153753
-0.0015344
-0.00152647
-0.00151371
-0.00149609
-0.00147358
-0.00144615
-0.0014138
-0.0013765
-0.00133424
-0.00128702
-0.00123482
-0.00117766
-0.00111554
-0.00104846
-0.000976446
-0.000899511
-0.000817683
-0.000730993
-0.000639481
-0.000543192
-0.000442178
-0.000336502
-0.000226231
-0.000111445
7.76953e-06
0.000131315
0.000259086
0.000390962
0.000526818
0.000666511
0.000809893
0.0009568
0.00110706
0.00126048
0.00141687
0.00157601
0.00173769
0.00190166
0.00206769
0.00223551
0.00240485
0.00257544
0.00274698
0.00291917
0.0030917
0.00326426
0.0034365
0.00360811
0.00377874
0.00394804
0.00411566
0.00428125
0.00444446
0.00460491
0.00476227
0.00491617
0.00506626
0.00521219
0.00535363
0.00549023
0.00562168
0.00574765
0.00586785
0.00598198
0.00608977
0.00619096
0.0062853
0.00637258
0.00645259
0.00652515
0.0065901
0.00664731
0.00669667
0.00673809
0.00677152
0.00679692
0.00681431
0.00682369
0.00682513
0.00681871
0.00680454
0.00678278
0.00675359
0.00671717
0.00667375
0.0066236
0.00656699
0.00650425
0.00643571
0.00636174
0.00628272
0.00619908
0.00611124
0.00601966
0.00592482
0.00582722
0.00572735
0.00562575
0.00552296
0.00541953
0.00531602
0.005213
0.00511104
0.00501073
0.00491264
0.00481735
0.00472545
0.0046375
0.00455406
0.00447569
0.00440291
0.00433624
0.00427619
0.00422322
0.0041778
0.00414035
0.00411133
0.00409117
0.00408017
0.00407869
0.00408993
0.00411648
0.000402539
0.00037848
0.000349316
0.000314237
0.000272797
0.000225655
0.000173455
0.000116766
5.61597e-05
-7.78722e-06
-7.4505e-05
-0.000143435
-0.000214036
-0.000285782
-0.000358172
-0.000430729
-0.000503004
-0.000574573
-0.000645043
-0.000714047
-0.000781246
-0.00084633
-0.000909013
-0.000969036
-0.00102616
-0.00108018
-0.00113088
-0.00117811
-0.0012217
-0.00126151
-0.00129741
-0.00132929
-0.00135705
-0.0013806
-0.00139986
-0.00141475
-0.00142521
-0.00143119
-0.00143263
-0.00142948
-0.0014217
-0.00140927
-0.00139214
-0.00137029
-0.0013437
-0.00131233
-0.00127619
-0.00123525
-0.0011895
-0.00113893
-0.00108356
-0.00102337
-0.000958376
-0.000888589
-0.000814026
-0.000734709
-0.000650667
-0.000561935
-0.000468554
-0.000370575
-0.000268053
-0.000161055
-4.96526e-05
6.60698e-05
0.00018602
0.000310097
0.000438187
0.000570167
0.000705904
0.000845252
0.000988055
0.00113414
0.00128334
0.00143545
0.00159027
0.00174758
0.00190716
0.00206877
0.00223215
0.00239705
0.00256319
0.00273029
0.00289805
0.00306617
0.00323435
0.00340225
0.00356956
0.00373594
0.00390105
0.00406455
0.00422609
0.00438533
0.00454191
0.00469548
0.0048457
0.00499223
0.00513471
0.00527282
0.00540623
0.00553462
0.00565767
0.0057751
0.00588662
0.00599195
0.00609084
0.00618306
0.00626838
0.0063466
0.00641756
0.00648109
0.00653706
0.00658536
0.00662592
0.00665867
0.00668358
0.00670066
0.00670994
0.00671145
0.0067053
0.00669158
0.00667045
0.00664207
0.00660664
0.00656438
0.00651555
0.00646043
0.00639932
0.00633257
0.00626052
0.00618356
0.00610208
0.00601652
0.00592731
0.00583492
0.00573984
0.00564254
0.00554355
0.00544338
0.00534256
0.00524165
0.00514117
0.00504169
0.00494375
0.00484792
0.00475475
0.00466478
0.00457855
0.00449661
0.00441948
0.00434765
0.00428163
0.00422188
0.00416888
0.00412306
0.00408486
0.00405471
0.00403306
0.00402021
0.00401652
0.00402486
0.00404743
0.000506261
0.000472
0.000435243
0.000394396
0.000348136
0.000297072
0.000241811
0.000182838
0.000120642
5.57271e-05
-1.1409e-05
-8.02754e-05
-0.000150393
-0.000221299
-0.000292547
-0.000363713
-0.000434394
-0.000504212
-0.000572813
-0.000639866
-0.000705065
-0.000768129
-0.000828799
-0.000886838
-0.000942029
-0.000994175
-0.0010431
-0.00108864
-0.00113065
-0.00116901
-0.00120358
-0.00123427
-0.00126099
-0.00128364
-0.00130215
-0.00131645
-0.00132648
-0.00133218
-0.0013335
-0.00133041
-0.00132285
-0.00131079
-0.0012942
-0.00127305
-0.00124732
-0.00121698
-0.00118201
-0.0011424
-0.00109814
-0.00104921
-0.000995619
-0.00093736
-0.000874438
-0.000806863
-0.000734646
-0.000657809
-0.000576375
-0.000490377
-0.000399851
-0.000304843
-0.000205405
-0.000101599
6.50744e-06
0.000118836
0.000235298
0.000355798
0.000480229
0.000608472
0.0007404
0.000875873
0.00101474
0.00115684
0.001302
0.00145003
0.00160074
0.00175391
0.00190933
0.00206676
0.00222596
0.00238668
0.00254864
0.00271157
0.00287519
0.0030392
0.0032033
0.00336716
0.00353048
0.00369293
0.00385417
0.00401386
0.00417168
0.00432728
0.0044803
0.00463042
0.00477728
0.00492056
0.00505991
0.005195
0.00532551
0.00545113
0.00557155
0.00568648
0.00579564
0.00589875
0.00599558
0.00608588
0.00616945
0.00624608
0.00631559
0.00637784
0.0064327
0.00648005
0.00651982
0.00655195
0.00657641
0.0065932
0.00660235
0.0066039
0.00659795
0.0065846
0.00656398
0.00653627
0.00650167
0.00646038
0.00641266
0.00635879
0.00629906
0.0062338
0.00616336
0.00608812
0.00600846
0.0059248
0.00583757
0.00574722
0.00565422
0.00555904
0.00546219
0.00536416
0.00526547
0.00516664
0.0050682
0.00497067
0.0048746
0.0047805
0.00468891
0.00460035
0.00451533
0.00443438
0.00435798
0.00428661
0.00422076
0.00416086
0.00410737
0.00406072
0.00402132
0.0039896
0.00396599
0.00395078
0.00394435
0.00394911
0.00396686
0.000616319
0.000571491
0.00052674
0.000479697
0.000428157
0.000372687
0.000313868
0.000252104
0.000187807
0.00012141
5.33456e-05
-1.59602e-05
-8.60887e-05
-0.000156634
-0.000227204
-0.000297423
-0.000366938
-0.00043541
-0.000502525
-0.00056799
-0.00063153
-0.000692893
-0.000751847
-0.000808178
-0.000861692
-0.00091221
-0.000959573
-0.00100363
-0.00104426
-0.00108133
-0.00111473
-0.00114438
-0.00117018
-0.00119205
-0.00120993
-0.00122374
-0.00123343
-0.00123894
-0.00124023
-0.00123726
-0.00122998
-0.00121835
-0.00120235
-0.00118195
-0.00115711
-0.00112782
-0.00109406
-0.0010558
-0.00101304
-0.000965757
-0.000913953
-0.000857621
-0.000796762
-0.000731382
-0.000661491
-0.000587105
-0.000508243
-0.000424935
-0.000337212
-0.000245116
-0.000148695
-4.8005e-05
5.68905e-05
0.000165918
0.000278996
0.000396033
0.000516927
0.000641566
0.000769828
0.000901579
0.00103667
0.00117496
0.00131627
0.00146041
0.00160721
0.00175646
0.00190794
0.00206143
0.00221669
0.00237348
0.00253152
0.00269056
0.00285032
0.00301049
0.0031708
0.00333092
0.00349055
0.00364937
0.00380705
0.00396326
0.00411767
0.00426993
0.00441972
0.00456669
0.00471051
0.00485084
0.00498735
0.00511972
0.00524763
0.00537076
0.00548882
0.00560152
0.00570857
0.00580972
0.00590471
0.00599331
0.00607531
0.00615052
0.00621876
0.00627988
0.00633374
0.00638025
0.00641932
0.00645089
0.00647494
0.00649146
0.00650048
0.00650205
0.00649624
0.00648318
0.00646298
0.00643582
0.00640189
0.0063614
0.00631459
0.00626174
0.00620315
0.00613912
0.00607001
0.00599617
0.005918
0.00583588
0.00575026
0.00566156
0.00557024
0.00547676
0.00538161
0.00528527
0.00518825
0.00509103
0.00499414
0.00489808
0.00480337
0.0047105
0.00462
0.00453235
0.00444806
0.0043676
0.00429146
0.00422009
0.00415395
0.00409346
0.00403905
0.00399114
0.00395012
0.0039164
0.00389038
0.00387236
0.00386269
0.00386331
0.00387558
0.000731356
0.000675725
0.000622693
0.000569119
0.000511926
0.000451648
0.000388849
0.000323857
0.000257013
0.000188684
0.00011924
4.90464e-05
-2.15348e-05
-9.21516e-05
-0.000162464
-0.000232144
-0.000300882
-0.000368382
-0.000434369
-0.000498583
-0.000560783
-0.000620746
-0.000678266
-0.000733155
-0.000785239
-0.00083436
-0.000880374
-0.000923152
-0.000962573
-0.000998531
-0.00103093
-0.00105968
-0.0010847
-0.00110592
-0.00112327
-0.0011367
-0.00114614
-0.00115156
-0.00115289
-0.00115011
-0.00114317
-0.00113204
-0.00111668
-0.00109707
-0.00107318
-0.00104497
-0.00101244
-0.000975564
-0.00093432
-0.000888697
-0.000838687
-0.000784282
-0.000725481
-0.000662285
-0.0005947
-0.000522738
-0.000446416
-0.000365757
-0.00028079
-0.000191551
-9.80828e-05
-4.36328e-07
0.000101329
0.000207147
0.000316939
0.000430621
0.000548096
0.000669258
0.000793992
0.000922168
0.00105365
0.00118829
0.00132592
0.00146637
0.00160946
0.00175499
0.00190275
0.00205252
0.00220408
0.00235717
0.00251156
0.00266696
0.00282312
0.00297974
0.00313653
0.0032932
0.00344944
0.00360492
0.00375934
0.00391236
0.00406366
0.00421291
0.00435976
0.00450389
0.00464496
0.00478265
0.00491663
0.00504656
0.00517215
0.00529307
0.00540904
0.00551976
0.00562495
0.00572436
0.00581774
0.00590486
0.0059855
0.00605947
0.00612659
0.00618672
0.00623972
0.00628549
0.00632395
0.00635504
0.00637872
0.006395
0.00640389
0.00640546
0.00639976
0.00638692
0.00636706
0.00634034
0.00630694
0.00626709
0.00622102
0.006169
0.00611131
0.00604827
0.00598021
0.00590749
0.00583049
0.0057496
0.00566523
0.00557781
0.00548779
0.00539561
0.00530175
0.00520668
0.00511088
0.00501483
0.00491904
0.00482398
0.00473016
0.00463806
0.00454817
0.00446097
0.00437694
0.00429652
0.00422019
0.00414837
0.0040815
0.00402
0.00396426
0.00391467
0.00387163
0.0038355
0.00380667
0.00378542
0.00377209
0.00376811
0.00377439
0.000850126
0.000783556
0.000722041
0.000661682
0.000598536
0.000533121
0.000465988
0.000397397
0.000327621
0.000256967
0.000185746
0.000114268
4.28401e-05
-2.82368e-05
-9.86707e-05
-0.000168181
-0.0002365
-0.000303372
-0.000368559
-0.000431837
-0.000492996
-0.000551842
-0.000608196
-0.000661895
-0.000712786
-0.000760732
-0.000805606
-0.000847296
-0.000885695
-0.00092071
-0.000952255
-0.000980251
-0.00100463
-0.00102532
-0.00104227
-0.00105541
-0.00106471
-0.00107012
-0.00107159
-0.00106908
-0.00106255
-0.00105198
-0.00103732
-0.00101855
-0.00099564
-0.000968565
-0.0009373
-0.000901826
-0.000862122
-0.000818173
-0.000769967
-0.000717493
-0.000660747
-0.000599725
-0.000534431
-0.000464872
-0.000391061
-0.000313015
-0.000230759
-0.000144324
-5.37486e-05
4.09225e-05
0.000139635
0.000242328
0.00034893
0.00045936
0.000573529
0.000691337
0.000812674
0.000937417
0.00106544
0.00119659
0.00133071
0.00146765
0.00160722
0.00174923
0.00189348
0.00203975
0.00218783
0.00233748
0.00248844
0.00264046
0.00279328
0.00294661
0.00310016
0.00325365
0.00340678
0.00355922
0.00371066
0.00386079
0.00400928
0.00415579
0.00430001
0.0044416
0.00458022
0.00471556
0.00484728
0.00497507
0.00509861
0.00521759
0.00533173
0.00544073
0.00554431
0.00564222
0.00573421
0.00582005
0.00589952
0.00597243
0.00603861
0.0060979
0.00615017
0.00619532
0.00623326
0.00626394
0.00628731
0.00630339
0.00631217
0.00631372
0.00630811
0.00629544
0.00627583
0.00624946
0.00621649
0.00617714
0.00613164
0.00608026
0.00602327
0.00596099
0.00589374
0.00582187
0.00574575
0.00566577
0.00558233
0.00549585
0.00540676
0.00531551
0.00522255
0.00512834
0.00503336
0.00493806
0.00484293
0.00474844
0.00465508
0.0045633
0.00447359
0.00438639
0.00430217
0.00422136
0.00414441
0.00407172
0.00400372
0.00394079
0.00388332
0.00383169
0.00378624
0.00374733
0.00371531
0.00369047
0.00367311
0.00366417
0.00366406
0.000971481
0.000893908
0.000823778
0.000756445
0.000687116
0.000616296
0.000544536
0.000472031
0.000398994
0.000325675
0.00025233
0.000179218
0.000106594
3.47103e-05
-3.61871e-05
-0.000105862
-0.000174086
-0.000240646
-0.000305338
-0.00036797
-0.000428367
-0.000486361
-0.000541803
-0.00059455
-0.000644474
-0.000691458
-0.000735394
-0.000776184
-0.000813739
-0.000847976
-0.000878823
-0.000906212
-0.000930079
-0.000950369
-0.000967028
-0.000980009
-0.000989265
-0.000994755
-0.000996438
-0.000994278
-0.000988238
-0.000978286
-0.000964389
-0.000946517
-0.000924643
-0.000898737
-0.000868777
-0.000834739
-0.000796601
-0.000754346
-0.000707957
-0.000657422
-0.000602732
-0.000543879
-0.000480864
-0.000413689
-0.000342362
-0.000266896
-0.000187311
-0.000103633
-1.58936e-05
7.58663e-05
0.000171599
0.000271248
0.000374749
0.000482026
0.000592998
0.000707569
0.000825635
0.000947082
0.00107178
0.0011996
0.00133039
0.00146398
0.00160021
0.0017389
0.00187984
0.00202283
0.00216765
0.00231406
0.00246184
0.00261072
0.00276045
0.00291075
0.00306133
0.00321191
0.00336219
0.00351187
0.00366062
0.00380814
0.0039541
0.00409818
0.00424005
0.00437938
0.00451584
0.00464911
0.00477886
0.00490478
0.00502654
0.00514386
0.00525643
0.00536395
0.00546617
0.00556281
0.00565363
0.0057384
0.0058169
0.00588894
0.00595434
0.00601295
0.00606463
0.00610927
0.0061468
0.00617715
0.00620028
0.00621619
0.00622489
0.00622643
0.00622089
0.00620835
0.00618895
0.00616283
0.00613018
0.00609121
0.00604614
0.00599523
0.00593876
0.00587702
0.00581035
0.00573908
0.00566358
0.00558422
0.00550141
0.00541555
0.00532707
0.00523639
0.00514397
0.00505025
0.00495568
0.00486074
0.00476587
0.00467154
0.00457822
0.00448635
0.00439638
0.00430877
0.00422395
0.00414234
0.00406436
0.00399041
0.00392088
0.00385615
0.00379658
0.00374252
0.00369432
0.00365229
0.00361675
0.00358798
0.0035663
0.00355208
0.00354529
0.00109436
0.00100578
0.000926954
0.000852513
0.000776822
0.000700386
0.000623759
0.000547079
0.000470501
0.000394225
0.000318457
0.000243404
0.000169275
9.62759e-05
2.46091e-05
-4.55309e-05
-0.000113957
-0.000180491
-0.000244966
-0.000307224
-0.000367117
-0.000424509
-0.000479274
-0.000531297
-0.00058047
-0.000626696
-0.000669886
-0.00070996
-0.000746842
-0.000780465
-0.000810768
-0.000837692
-0.000861185
-0.0008812
-0.000897689
-0.000910612
-0.000919927
-0.000925598
-0.000927587
-0.000925859
-0.000920382
-0.000911123
-0.00089805
-0.000881134
-0.000860346
-0.000835657
-0.000807042
-0.000774474
-0.000737932
-0.000697393
-0.000652839
-0.000604254
-0.000551624
-0.00049494
-0.000434195
-0.000369389
-0.000300524
-0.00022761
-0.000150659
-6.96927e-05
1.52618e-05
0.00010417
0.000196991
0.000293673
0.000394157
0.000498376
0.000606253
0.000717698
0.000832615
0.000950895
0.00107242
0.00119705
0.00132466
0.00145508
0.00158815
0.00172369
0.00186152
0.00200142
0.00214319
0.00228661
0.00243142
0.0025774
0.00272428
0.00287179
0.00301966
0.00316759
0.0033153
0.00346247
0.00360881
0.003754
0.00389772
0.00403964
0.00417943
0.00431679
0.00445137
0.00458285
0.00471091
0.00483523
0.00495549
0.0050714
0.00518265
0.00528896
0.00539005
0.00548566
0.00557553
0.00565944
0.00573717
0.00580852
0.00587331
0.00593139
0.00598263
0.0060269
0.00606412
0.00609423
0.00611719
0.00613299