/*--------------------------------*- C++ -*----------------------------------*\
| =========                 |                                                 |
| \\      /  F ield         | OpenFOAM: The Open Source CFD Toolbox           |
|  \\    /   O peration     | Version:  2.1.1                                 |
|   \\  /    A nd           | Web:      www.OpenFOAM.org                      |
|    \\/     M anipulation  |                                                 |
\*---------------------------------------------------------------------------*/
FoamFile
{
    version     2.0;
    format      ascii;
    class       surfaceScalarField;
    location    "1.4";
    object      phi;
}
// * * * * * * * * * * * * * * * * * * * * * * * * * * * * * * * * * * * * * //

dimensions      [0 3 -1 0 0 0 0];

internalField   nonuniform List<scalar> 
51520
(
2.04724e-12
-2.04825e-12
1.06681e-11
-8.62081e-12
2.30011e-11
-1.23331e-11
3.61817e-11
-1.31805e-11
4.82235e-11
-1.20418e-11
5.7789e-11
-9.56549e-12
6.39937e-11
-6.2047e-12
6.62735e-11
-2.27988e-12
6.42882e-11
1.98535e-12
5.78536e-11
6.43466e-12
4.6897e-11
1.09566e-11
3.14263e-11
1.54707e-11
1.15073e-11
1.99189e-11
-1.2751e-11
2.42584e-11
-4.12094e-11
2.84584e-11
-7.37062e-11
3.24968e-11
-1.10064e-10
3.63582e-11
-1.50097e-10
4.00322e-11
-1.93609e-10
4.35126e-11
-2.40405e-10
4.67961e-11
-2.90287e-10
4.98819e-11
-3.43058e-10
5.27711e-11
-3.98525e-10
5.54663e-11
-4.56496e-10
5.79711e-11
-5.16786e-10
6.029e-11
-5.79214e-10
6.24281e-11
-6.43605e-10
6.43909e-11
-7.09789e-10
6.61842e-11
-7.77603e-10
6.7814e-11
-8.46889e-10
6.92861e-11
-9.17495e-10
7.06064e-11
-9.89276e-10
7.17806e-11
-1.06209e-09
7.28143e-11
-1.1358e-09
7.37128e-11
-1.21028e-09
7.44811e-11
-1.28541e-09
7.51238e-11
-1.36105e-09
7.56453e-11
-1.4371e-09
7.60497e-11
-1.51344e-09
7.63405e-11
-1.58996e-09
7.6521e-11
-1.66656e-09
7.65943e-11
-1.74312e-09
7.65627e-11
-1.81955e-09
7.64286e-11
-1.89574e-09
7.61939e-11
-1.9716e-09
7.586e-11
-2.04703e-09
7.54283e-11
-2.12193e-09
7.48998e-11
-2.19621e-09
7.42751e-11
-2.26976e-09
7.35548e-11
-2.3425e-09
7.27391e-11
-2.41433e-09
7.18282e-11
-2.48515e-09
7.08219e-11
-2.55487e-09
6.972e-11
-2.62339e-09
6.85224e-11
-2.69062e-09
6.72285e-11
-2.75646e-09
6.58379e-11
-2.82081e-09
6.43503e-11
-2.88358e-09
6.27652e-11
-2.94466e-09
6.10821e-11
-3.00396e-09
5.93008e-11
-3.06138e-09
5.74211e-11
-3.11682e-09
5.54427e-11
-3.17019e-09
5.33659e-11
-3.22138e-09
5.11907e-11
-3.2703e-09
4.89175e-11
-3.31684e-09
4.65471e-11
-3.36092e-09
4.40802e-11
-3.40244e-09
4.1518e-11
-3.4413e-09
3.88618e-11
-3.47742e-09
3.61135e-11
-3.51069e-09
3.32749e-11
-3.54104e-09
3.03485e-11
-3.56838e-09
2.73369e-11
-3.59262e-09
2.42432e-11
-3.61369e-09
2.10708e-11
-3.63151e-09
1.78234e-11
-3.64602e-09
1.45054e-11
-3.65714e-09
1.11212e-11
-3.66482e-09
7.67568e-12
-3.66899e-09
4.17429e-12
-3.66961e-09
6.22713e-13
-3.66664e-09
-2.97296e-12
-3.66003e-09
-6.60626e-12
-3.64976e-09
-1.02703e-11
-3.63581e-09
-1.3958e-11
-3.61814e-09
-1.76617e-11
-3.59677e-09
-2.13737e-11
-3.57168e-09
-2.50856e-11
-3.5429e-09
-2.87892e-11
-3.51042e-09
-3.24755e-11
-3.47428e-09
-3.61358e-11
-3.43452e-09
-3.97608e-11
-3.39118e-09
-4.33412e-11
-3.34431e-09
-4.68675e-11
-3.29398e-09
-5.033e-11
-3.24027e-09
-5.3719e-11
-3.18324e-09
-5.70248e-11
-3.123e-09
-6.02377e-11
-3.05966e-09
-6.33478e-11
-2.99331e-09
-6.63456e-11
-2.92409e-09
-6.92215e-11
-2.85212e-09
-7.19662e-11
-2.77755e-09
-7.45704e-11
-2.70053e-09
-7.70251e-11
-2.6212e-09
-7.93219e-11
-2.53975e-09
-8.14522e-11
-2.45634e-09
-8.34081e-11
-2.37116e-09
-8.51822e-11
-2.28439e-09
-8.67673e-11
-2.19624e-09
-8.81567e-11
-2.10689e-09
-8.93445e-11
-2.01657e-09
-9.0325e-11
-1.92548e-09
-9.10935e-11
-1.83383e-09
-9.16455e-11
-1.74185e-09
-9.19775e-11
-1.64977e-09
-9.20864e-11
-1.5578e-09
-9.19701e-11
-1.46617e-09
-9.16271e-11
-1.37511e-09
-9.10564e-11
-1.28485e-09
-9.02582e-11
-1.19562e-09
-8.92332e-11
-1.10764e-09
-8.79828e-11
-1.02113e-09
-8.65094e-11
-9.36312e-10
-8.48161e-11
-8.53406e-10
-8.29067e-11
-7.7262e-10
-8.07859e-11
-6.94161e-10
-7.84591e-11
-6.18228e-10
-7.59325e-11
-5.45015e-10
-7.32132e-11
-4.74706e-10
-7.03087e-11
-4.07479e-10
-6.72278e-11
-3.43499e-10
-6.39795e-11
-2.82925e-10
-6.0574e-11
-2.25903e-10
-5.7022e-11
-1.72568e-10
-5.33352e-11
-1.23042e-10
-4.95259e-11
-7.74346e-11
-4.56075e-11
-3.58406e-11
-4.1594e-11
1.66021e-12
-3.75008e-11
3.50043e-11
-3.33441e-11
6.41457e-11
-2.91414e-11
8.90572e-11
-2.49115e-11
1.09732e-10
-2.06753e-11
1.26188e-10
-1.64552e-11
1.38464e-10
-1.22762e-11
1.4663e-10
-8.16624e-12
1.50787e-10
-4.15693e-12
1.51071e-10
-2.84484e-13
1.47662e-10
3.4094e-12
1.40787e-10
6.87509e-12
1.30733e-10
1.00536e-11
1.17861e-10
1.28728e-11
1.02617e-10
1.5244e-11
8.55616e-11
1.7055e-11
6.73984e-11
1.81632e-11
4.90138e-11
1.83847e-11
3.15256e-11
1.74882e-11
1.63212e-11
1.52044e-11
5.06901e-12
1.12522e-11
-4.48631e-13
5.51764e-12
-4.48625e-13
8.62368e-12
-1.06719e-11
2.82208e-11
-2.8218e-11
5.33311e-11
-3.74434e-11
7.90487e-11
-3.88981e-11
1.01371e-10
-3.43639e-11
1.17259e-10
-2.54541e-11
1.2451e-10
-1.3455e-11
1.21584e-10
6.45767e-13
1.07463e-10
1.61061e-11
8.15235e-11
3.23745e-11
4.34423e-11
4.90378e-11
-6.87394e-12
6.5787e-11
-6.93452e-11
8.23902e-11
-1.4376e-10
9.86736e-11
-2.29809e-10
1.14507e-10
-3.27108e-10
1.29795e-10
-4.35218e-10
1.44468e-10
-5.53663e-10
1.58477e-10
-6.81938e-10
1.71789e-10
-8.19526e-10
1.84383e-10
-9.65895e-10
1.96251e-10
-1.12051e-09
2.07391e-10
-1.28285e-09
2.17806e-10
-1.45239e-09
2.27507e-10
-1.62861e-09
2.36505e-10
-1.811e-09
2.44818e-10
-1.99907e-09
2.52463e-10
-2.19234e-09
2.59459e-10
-2.39035e-09
2.65826e-10
-2.59265e-09
2.71586e-10
-2.79881e-09
2.76758e-10
-3.00839e-09
2.81364e-10
-3.221e-09
2.85422e-10
-3.43624e-09
2.88952e-10
-3.65373e-09
2.91972e-10
-3.8731e-09
2.94499e-10
-4.09401e-09
2.9655e-10
-4.31609e-09
2.98138e-10
-4.53903e-09
2.99278e-10
-4.76249e-09
2.99982e-10
-4.98616e-09
3.0026e-10
-5.20972e-09
3.00123e-10
-5.43287e-09
2.99579e-10
-5.65531e-09
2.98636e-10
-5.87675e-09
2.97298e-10
-6.09689e-09
2.95572e-10
-6.31546e-09
2.93461e-10
-6.53215e-09
2.90969e-10
-6.74669e-09
2.88097e-10
-6.9588e-09
2.84847e-10
-7.16819e-09
2.8122e-10
-7.37459e-09
2.77216e-10
-7.5777e-09
2.72834e-10
-7.77725e-09
2.68074e-10
-7.97296e-09
2.62935e-10
-8.16454e-09
2.57416e-10
-8.3517e-09
2.51516e-10
-8.53417e-09
2.45233e-10
-8.71165e-09
2.38567e-10
-8.88387e-09
2.31517e-10
-9.05053e-09
2.24083e-10
-9.21135e-09
2.16264e-10
-9.36605e-09
2.08062e-10
-9.51434e-09
1.99479e-10
-9.65594e-09
1.90516e-10
-9.79056e-09
1.81176e-10
-9.91795e-09
1.71463e-10
-1.00378e-08
1.61382e-10
-1.01499e-08
1.50939e-10
-1.02539e-08
1.40142e-10
-1.03496e-08
1.28998e-10
-1.04368e-08
1.17518e-10
-1.05152e-08
1.05711e-10
-1.05845e-08
9.35914e-11
-1.06446e-08
8.11715e-11
-1.06953e-08
6.84667e-11
-1.07363e-08
5.54936e-11
-1.07674e-08
4.22701e-11
-1.07886e-08
2.88156e-11
-1.07995e-08
1.51511e-11
-1.08002e-08
1.29899e-12
-1.07905e-08
-1.27171e-11
-1.07702e-08
-2.68718e-11
-1.07393e-08
-4.11388e-11
-1.06978e-08
-5.54899e-11
-1.06456e-08
-6.98961e-11
-1.05826e-08
-8.43271e-11
-1.05089e-08
-9.87511e-11
-1.04246e-08
-1.13136e-10
-1.03296e-08
-1.27447e-10
-1.02241e-08
-1.41652e-10
-1.01082e-08
-1.55713e-10
-9.9819e-09
-1.69596e-10
-9.84551e-09
-1.83264e-10
-9.69916e-09
-1.96679e-10
-9.54307e-09
-2.09806e-10
-9.37749e-09
-2.22607e-10
-9.20268e-09
-2.35044e-10
-9.01895e-09
-2.4708e-10
-8.82662e-09
-2.58678e-10
-8.62604e-09
-2.69803e-10
-8.41758e-09
-2.80417e-10
-8.20167e-09
-2.90487e-10
-7.97871e-09
-2.99978e-10
-7.74918e-09
-3.08858e-10
-7.51354e-09
-3.17094e-10
-7.27229e-09
-3.24656e-10
-7.02596e-09
-3.31516e-10
-6.77508e-09
-3.37647e-10
-6.52021e-09
-3.43024e-10
-6.26193e-09
-3.47623e-10
-6.00083e-09
-3.51424e-10
-5.73752e-09
-3.54408e-10
-5.4726e-09
-3.5656e-10
-5.20671e-09
-3.57865e-10
-4.94049e-09
-3.58312e-10
-4.67457e-09
-3.57893e-10
-4.40959e-09
-3.56602e-10
-4.14621e-09
-3.54437e-10
-3.88507e-09
-3.51397e-10
-3.62682e-09
-3.47486e-10
-3.37209e-09
-3.4271e-10
-3.12152e-09
-3.37078e-10
-2.87574e-09
-3.30602e-10
-2.63535e-09
-3.23297e-10
-2.40095e-09
-3.15181e-10
-2.17313e-09
-3.06276e-10
-1.95246e-09
-2.96605e-10
-1.73948e-09
-2.86196e-10
-1.53471e-09
-2.75079e-10
-1.33865e-09
-2.63286e-10
-1.15177e-09
-2.50855e-10
-9.74523e-10
-2.37825e-10
-8.07308e-10
-2.24238e-10
-6.50504e-10
-2.10139e-10
-5.04454e-10
-1.95577e-10
-3.69457e-10
-1.80604e-10
-2.45774e-10
-1.65277e-10
-1.33621e-10
-1.49654e-10
-3.31632e-11
-1.33802e-10
5.54834e-11
-1.17788e-10
1.3226e-10
-1.01688e-10
1.97167e-10
-8.55828e-11
2.50274e-10
-6.95623e-11
2.91723e-10
-5.37247e-11
3.21736e-10
-3.81796e-11
3.40629e-10
-2.30502e-11
3.48821e-10
-8.47659e-12
3.4685e-10
5.38038e-12
3.35391e-10
1.83341e-11
3.1528e-10
3.01647e-11
2.87542e-10
4.06113e-11
2.53425e-10
4.9361e-11
2.14444e-10
5.6036e-11
1.72427e-10
6.01802e-11
1.29563e-10
6.12489e-11
8.8431e-11
5.86198e-11
5.19784e-11
5.16569e-11
2.33648e-11
3.98659e-11
5.50691e-12
2.33755e-11
5.05829e-12
1.23619e-11
-2.30338e-11
3.75186e-11
-5.33746e-11
6.7694e-11
-6.76189e-11
9.6712e-11
-6.79161e-11
1.19494e-10
-5.71462e-11
1.32026e-10
-3.79861e-11
1.31256e-10
-1.26845e-11
1.1495e-10
1.69513e-11
8.15521e-11
4.95042e-11
3.00503e-11
8.38763e-11
-4.01307e-11
1.19219e-10
-1.29223e-10
1.5488e-10
-2.37191e-10
1.90357e-10
-3.63784e-10
2.25267e-10
-5.08594e-10
2.59317e-10
-6.71085e-10
2.92286e-10
-8.50627e-10
3.2401e-10
-1.04652e-09
3.5437e-10
-1.25802e-09
3.83283e-10
-1.48433e-09
4.10695e-10
-1.72465e-09
4.36574e-10
-1.97817e-09
4.60907e-10
-2.24406e-09
4.83697e-10
-2.5215e-09
5.04955e-10
-2.8097e-09
5.24703e-10
-3.10786e-09
5.42971e-10
-3.41519e-09
5.59793e-10
-3.73093e-09
5.75204e-10
-4.05435e-09
5.89246e-10
-4.38473e-09
6.0196e-10
-4.72135e-09
6.13387e-10
-5.06356e-09
6.23569e-10
-5.41068e-09
6.32546e-10
-5.76209e-09
6.40358e-10
-6.11716e-09
6.47043e-10
-6.4753e-09
6.52637e-10
-6.83592e-09
6.57173e-10
-7.19847e-09
6.60682e-10
-7.56238e-09
6.63194e-10
-7.92714e-09
6.64734e-10
-8.2922e-09
6.65326e-10
-8.65707e-09
6.6499e-10
-9.02123e-09
6.63745e-10
-9.3842e-09
6.61607e-10
-9.7455e-09
6.5859e-10
-1.01046e-08
6.54703e-10
-1.04611e-08
6.49957e-10
-1.08145e-08
6.44358e-10
-1.11643e-08
6.37911e-10
-1.15101e-08
6.30621e-10
-1.18514e-08
6.22489e-10
-1.21877e-08
6.13516e-10
-1.25185e-08
6.03703e-10
-1.28435e-08
5.93049e-10
-1.31621e-08
5.81552e-10
-1.34739e-08
5.69211e-10
-1.37784e-08
5.56024e-10
-1.40752e-08
5.4199e-10
-1.43637e-08
5.27108e-10
-1.46436e-08
5.11378e-10
-1.49143e-08
4.94799e-10
-1.51754e-08
4.77374e-10
-1.54265e-08
4.59104e-10
-1.5667e-08
4.39994e-10
-1.58965e-08
4.2005e-10
-1.61146e-08
3.99279e-10
-1.63208e-08
3.77691e-10
-1.65148e-08
3.55298e-10
-1.66959e-08
3.32113e-10
-1.68639e-08
3.08154e-10
-1.70184e-08
2.83439e-10
-1.71589e-08
2.57991e-10
-1.7285e-08
2.31834e-10
-1.73964e-08
2.04995e-10
-1.74927e-08
1.77507e-10
-1.75737e-08
1.49402e-10
-1.76389e-08
1.20717e-10
-1.76881e-08
9.14918e-11
-1.77211e-08
6.17703e-11
-1.77375e-08
3.15984e-11
-1.77372e-08
1.02551e-12
-1.772e-08
-2.98959e-11
-1.76858e-08
-6.11102e-11
-1.76344e-08
-9.25591e-11
-1.75657e-08
-1.24181e-10
-1.74797e-08
-1.55913e-10
-1.73763e-08
-1.87687e-10
-1.72556e-08
-2.19434e-10
-1.71177e-08
-2.51084e-10
-1.69626e-08
-2.82563e-10
-1.67904e-08
-3.13796e-10
-1.66014e-08
-3.44706e-10
-1.63958e-08
-3.75214e-10
-1.61738e-08
-4.05242e-10
-1.59358e-08
-4.34708e-10
-1.56821e-08
-4.63533e-10
-1.54131e-08
-4.91635e-10
-1.51292e-08
-5.18933e-10
-1.48309e-08
-5.45346e-10
-1.45188e-08
-5.70795e-10
-1.41934e-08
-5.952e-10
-1.38553e-08
-6.18485e-10
-1.35052e-08
-6.40572e-10
-1.31438e-08
-6.61389e-10
-1.27718e-08
-6.80865e-10
-1.239e-08
-6.9893e-10
-1.19991e-08
-7.15519e-10
-1.16001e-08
-7.3057e-10
-1.11937e-08
-7.44026e-10
-1.07809e-08
-7.55832e-10
-1.03626e-08
-7.65937e-10
-9.93969e-09
-7.74298e-10
-9.51322e-09
-7.80875e-10
-9.08415e-09
-7.85631e-10
-8.65347e-09
-7.88539e-10
-8.22221e-09
-7.89574e-10
-7.79139e-09
-7.88718e-10
-7.36203e-09
-7.85959e-10
-6.93517e-09
-7.81293e-10
-6.51185e-09
-7.74719e-10
-6.09309e-09
-7.66245e-10
-5.67992e-09
-7.55884e-10
-5.27334e-09
-7.43656e-10
-4.87436e-09
-7.29588e-10
-4.48394e-09
-7.13714e-10
-4.10305e-09
-6.96073e-10
-3.73261e-09
-6.76712e-10
-3.37353e-09
-6.55684e-10
-3.02668e-09
-6.33049e-10
-2.69289e-09
-6.08875e-10
-2.37294e-09
-5.83233e-10
-2.06759e-09
-5.56204e-10
-1.77754e-09
-5.27875e-10
-1.50344e-09
-4.98339e-10
-1.24588e-09
-4.67696e-10
-1.0054e-09
-4.36056e-10
-7.82474e-10
-4.03533e-10
-5.77499e-10
-3.70251e-10
-3.90809e-10
-3.36344e-10
-2.22656e-10
-3.01955e-10
-7.32086e-11
-2.67236e-10
5.74575e-11
-2.32354e-10
1.69364e-10
-1.9749e-10
2.62642e-10
-1.6284e-10
3.3754e-10
-1.28623e-10
3.94438e-10
-9.50772e-11
4.33861e-10
-6.24729e-11
4.56497e-10
-3.11128e-11
4.6322e-10
-1.34231e-12
4.5511e-10
2.64438e-11
4.33489e-10
5.17858e-11
3.99951e-10
7.41499e-11
3.56401e-10
9.29103e-11
3.05103e-10
1.07335e-10
2.48712e-10
1.16571e-10
1.90312e-10
1.19649e-10
1.3341e-10
1.15522e-10
8.18801e-11
1.03187e-10
3.9809e-11
8.19369e-11
1.1218e-11
5.19665e-11
1.62763e-11
1.32586e-11
-3.62925e-11
3.91066e-11
-7.92226e-11
6.82128e-11
-9.6725e-11
9.34796e-11
-9.3183e-11
1.09174e-10
-7.28405e-11
1.10718e-10
-3.95306e-11
9.45537e-11
3.48031e-12
5.80008e-11
5.35043e-11
-8.69906e-13
1.08375e-10
-8.33585e-11
1.66365e-10
-1.9025e-10
2.2611e-10
-3.21904e-10
2.86534e-10
-4.78342e-10
3.46795e-10
-6.5931e-10
4.06236e-10
-8.64339e-10
4.64346e-10
-1.09279e-09
5.20735e-10
-1.34388e-09
5.75107e-10
-1.61676e-09
6.27242e-10
-1.91045e-09
6.76983e-10
-2.22398e-09
7.24221e-10
-2.5563e-09
7.6889e-10
-2.90634e-09
8.10954e-10
-3.27305e-09
8.50404e-10
-3.65535e-09
8.87252e-10
-4.05217e-09
9.21525e-10
-4.46246e-09
9.53265e-10
-4.88519e-09
9.82523e-10
-5.31934e-09
1.00935e-09
-5.76392e-09
1.03382e-09
-6.21796e-09
1.056e-09
-6.6805e-09
1.07594e-09
-7.15065e-09
1.09371e-09
-7.6275e-09
1.1094e-09
-8.11019e-09
1.12304e-09
-8.59787e-09
1.13472e-09
-9.08973e-09
1.14449e-09
-9.58496e-09
1.15241e-09
-1.00828e-08
1.15852e-09
-1.05825e-08
1.16288e-09
-1.10833e-08
1.16554e-09
-1.15845e-08
1.16652e-09
-1.20854e-08
1.16586e-09
-1.25852e-08
1.1636e-09
-1.30834e-08
1.15977e-09
-1.35792e-08
1.15438e-09
-1.40719e-08
1.14746e-09
-1.4561e-08
1.13903e-09
-1.50457e-08
1.12909e-09
-1.55255e-08
1.11765e-09
-1.59996e-08
1.10472e-09
-1.64674e-08
1.09031e-09
-1.69283e-08
1.07442e-09
-1.73817e-08
1.05706e-09
-1.78268e-08
1.03821e-09
-1.82631e-08
1.01788e-09
-1.869e-08
9.96068e-10
-1.91068e-08
9.72774e-10
-1.95128e-08
9.47996e-10
-1.99074e-08
9.21733e-10
-2.029e-08
8.93987e-10
-2.066e-08
8.64759e-10
-2.10166e-08
8.34053e-10
-2.13594e-08
8.01875e-10
-2.16876e-08
7.68235e-10
-2.20007e-08
7.33143e-10
-2.22981e-08
6.96614e-10
-2.2579e-08
6.58667e-10
-2.28431e-08
6.19324e-10
-2.30896e-08
5.7861e-10
-2.3318e-08
5.36556e-10
-2.35277e-08
4.93197e-10
-2.37183e-08
4.48571e-10
-2.38892e-08
4.02723e-10
-2.40399e-08
3.55703e-10
-2.417e-08
3.07565e-10
-2.42789e-08
2.58368e-10
-2.43664e-08
2.08178e-10
-2.4432e-08
1.57065e-10
-2.44753e-08
1.05104e-10
-2.44961e-08
5.23769e-11
-2.4494e-08
-1.03017e-12
-2.44689e-08
-5.50255e-11
-2.44205e-08
-1.09512e-10
-2.43487e-08
-1.64389e-10
-2.42533e-08
-2.19549e-10
-2.41343e-08
-2.74881e-10
-2.39917e-08
-3.30269e-10
-2.38256e-08
-3.85594e-10
-2.36359e-08
-4.40732e-10
-2.34229e-08
-4.95557e-10
-2.31868e-08
-5.49937e-10
-2.29278e-08
-6.03741e-10
-2.26461e-08
-6.56834e-10
-2.23423e-08
-7.09077e-10
-2.20167e-08
-7.60333e-10
-2.16698e-08
-8.10463e-10
-2.13021e-08
-8.59326e-10
-2.09142e-08
-9.06784e-10
-2.05069e-08
-9.52697e-10
-2.00807e-08
-9.96928e-10
-1.96366e-08
-1.03934e-09
-1.91753e-08
-1.0798e-09
-1.86977e-08
-1.11818e-09
-1.82047e-08
-1.15436e-09
-1.76974e-08
-1.1882e-09
-1.71767e-08
-1.21959e-09
-1.66438e-08
-1.24843e-09
-1.60998e-08
-1.27459e-09
-1.55458e-08
-1.298e-09
-1.49831e-08
-1.31854e-09
-1.44129e-08
-1.33614e-09
-1.38365e-08
-1.35072e-09
-1.32551e-08
-1.3622e-09
-1.26702e-08
-1.37054e-09
-1.20831e-08
-1.37568e-09
-1.14951e-08
-1.37758e-09
-1.09076e-08
-1.37621e-09
-1.0322e-08
-1.37156e-09
-9.73968e-09
-1.3636e-09
-9.16206e-09
-1.35234e-09
-8.5905e-09
-1.3378e-09
-8.02638e-09
-1.32001e-09
-7.47105e-09
-1.29898e-09
-6.92586e-09
-1.27478e-09
-6.39212e-09
-1.24745e-09
-5.87111e-09
-1.21708e-09
-5.36408e-09
-1.18374e-09
-4.87225e-09
-1.14752e-09
-4.39677e-09
-1.10853e-09
-3.93876e-09
-1.06688e-09
-3.49928e-09
-1.02271e-09
-3.07933e-09
-9.76148e-10
-2.67986e-09
-9.27349e-10
-2.30172e-09
-8.76475e-10
-1.94572e-09
-8.23704e-10
-1.61255e-09
-7.69224e-10
-1.30284e-09
-7.13238e-10
-1.01713e-09
-6.55962e-10
-7.55844e-10
-5.9763e-10
-5.19308e-10
-5.3849e-10
-3.07731e-10
-4.78813e-10
-1.21199e-10
-4.18886e-10
4.0338e-11
-3.59027e-10
1.77074e-10
-2.99576e-10
2.89361e-10
-2.4091e-10
3.77729e-10
-1.83444e-10
4.42894e-10
-1.27639e-10
4.85791e-10
-7.40091e-11
5.07585e-10
-2.31369e-11
5.09711e-10
2.43184e-11
4.93893e-10
6.76033e-11
4.62189e-10
1.05855e-10
4.17018e-10
1.38081e-10
3.61202e-10
1.6315e-10
2.97994e-10
1.79778e-10
2.31093e-10
1.86551e-10
1.64637e-10
1.81978e-10
1.03172e-10
1.64651e-10
5.15959e-11
1.33513e-10
1.51528e-11
8.84096e-11
3.14291e-11
1.21815e-11
-4.84741e-11
3.47271e-11
-1.01768e-10
5.76796e-11
-1.19677e-10
7.34372e-11
-1.08941e-10
7.59076e-11
-7.53109e-11
6.02148e-11
-2.38378e-11
2.25249e-11
4.11702e-11
-4.00964e-11
1.16126e-10
-1.29806e-10
1.98084e-10
-2.48094e-10
2.84654e-10
-3.9589e-10
3.73905e-10
-5.7365e-10
4.64294e-10
-7.81441e-10
5.54587e-10
-1.01901e-09
6.43808e-10
-1.28586e-09
7.31188e-10
-1.58125e-09
8.16131e-10
-1.90432e-09
8.98174e-10
-2.25405e-09
9.76971e-10
-2.62933e-09
1.05227e-09
-3.02899e-09
1.12388e-09
-3.45178e-09
1.19169e-09
-3.89646e-09
1.25563e-09
-4.36173e-09
1.31567e-09
-4.84629e-09
1.37182e-09
-5.34886e-09
1.4241e-09
-5.86816e-09
1.47256e-09
-6.40291e-09
1.51728e-09
-6.95187e-09
1.55832e-09
-7.51383e-09
1.59578e-09
-8.08757e-09
1.62974e-09
-8.67193e-09
1.6603e-09
-9.26578e-09
1.68756e-09
-9.86799e-09
1.71161e-09
-1.04775e-08
1.73255e-09
-1.10932e-08
1.75046e-09
-1.17142e-08
1.76543e-09
-1.23393e-08
1.77755e-09
-1.29677e-08
1.78689e-09
-1.35983e-08
1.79352e-09
-1.42303e-08
1.79751e-09
-1.48627e-08
1.79892e-09
-1.54946e-08
1.7978e-09
-1.61252e-08
1.79419e-09
-1.67536e-08
1.78814e-09
-1.73789e-08
1.77968e-09
-1.80003e-08
1.76885e-09
-1.86169e-08
1.75566e-09
-1.92279e-08
1.74014e-09
-1.98326e-08
1.7223e-09
-2.043e-08
1.70216e-09
-2.10194e-08
1.67972e-09
-2.16e-08
1.65498e-09
-2.21709e-08
1.62796e-09
-2.27313e-08
1.59865e-09
-2.32805e-08
1.56706e-09
-2.38176e-08
1.53318e-09
-2.43419e-08
1.49701e-09
-2.48524e-08
1.45855e-09
-2.53485e-08
1.41781e-09
-2.58293e-08
1.37479e-09
-2.6294e-08
1.32949e-09
-2.67419e-08
1.28193e-09
-2.71721e-08
1.2321e-09
-2.7584e-08
1.18004e-09
-2.79766e-08
1.12575e-09
-2.83492e-08
1.06927e-09
-2.87012e-08
1.01063e-09
-2.90317e-08
9.49846e-10
-2.93401e-08
8.86978e-10
-2.96256e-08
8.2207e-10
-2.98876e-08
7.55176e-10
-3.01254e-08
6.86358e-10
-3.03383e-08
6.15686e-10
-3.05258e-08
5.43237e-10
-3.06874e-08
4.69095e-10
-3.08224e-08
3.93354e-10
-3.09303e-08
3.16114e-10
-3.10107e-08
2.37484e-10
-3.10632e-08
1.5758e-10
-3.10873e-08
7.65274e-11
-3.10828e-08
-5.54064e-12
-3.10494e-08
-8.84837e-11
-3.09867e-08
-1.72153e-10
-3.08947e-08
-2.56394e-10
-3.07732e-08
-3.41042e-10
-3.06222e-08
-4.25928e-10
-3.04416e-08
-5.10875e-10
-3.02315e-08
-5.95701e-10
-2.9992e-08
-6.80218e-10
-2.97233e-08
-7.64232e-10
-2.94257e-08
-8.47544e-10
-2.90995e-08
-9.29954e-10
-2.87451e-08
-1.01126e-09
-2.83629e-08
-1.09124e-09
-2.79535e-08
-1.1697e-09
-2.75176e-08
-1.24642e-09
-2.70557e-08
-1.32119e-09
-2.65687e-08
-1.3938e-09
-2.60574e-08
-1.46404e-09
-2.55226e-08
-1.5317e-09
-2.49654e-08
-1.59657e-09
-2.43867e-08
-1.65846e-09
-2.37877e-08
-1.71716e-09
-2.31696e-08
-1.77249e-09
-2.25336e-08
-1.82425e-09
-2.18809e-08
-1.87228e-09
-2.12129e-08
-1.9164e-09
-2.0531e-08
-1.95645e-09
-1.98368e-08
-1.99228e-09
-1.91315e-08
-2.02376e-09
-1.84169e-08
-2.05074e-09
-1.76945e-08
-2.07313e-09
-1.69659e-08
-2.09081e-09
-1.62328e-08
-2.10369e-09
-1.54967e-08
-2.1117e-09
-1.47595e-08
-2.11478e-09
-1.40229e-08
-2.11289e-09
-1.32884e-08
-2.10598e-09
-1.2558e-08
-2.09406e-09
-1.18332e-08
-2.07712e-09
-1.11158e-08
-2.05519e-09
-1.04075e-08
-2.0283e-09
-9.71e-09
-1.9965e-09
-9.02491e-09
-1.95987e-09
-8.35386e-09
-1.9185e-09
-7.69846e-09
-1.87249e-09
-7.06023e-09
-1.82197e-09
-6.44067e-09
-1.76708e-09
-5.84123e-09
-1.70798e-09
-5.26326e-09
-1.64485e-09
-4.70809e-09
-1.57788e-09
-4.17695e-09
-1.50729e-09
-3.67098e-09
-1.43331e-09
-3.19126e-09
-1.3562e-09
-2.73875e-09
-1.27621e-09
-2.31433e-09
-1.19365e-09
-1.91875e-09
-1.10882e-09
-1.55266e-09
-1.02205e-09
-1.21659e-09
-9.33708e-10
-9.10906e-10
-8.44171e-10
-6.35867e-10
-7.53851e-10
-3.91561e-10
-6.63193e-10
-1.77911e-10
-5.72676e-10
5.33561e-12
-4.82823e-10
1.58629e-10
-3.94204e-10
2.82627e-10
-3.07443e-10
3.78221e-10
-2.23233e-10
4.46553e-10
-1.4234e-10
4.89039e-10
-6.56235e-11
5.07403e-10
5.95436e-12
5.03699e-10
7.13073e-11
4.80346e-10
1.29208e-10
4.40155e-10
1.78271e-10
3.86365e-10
2.1694e-10
3.22657e-10
2.43487e-10
2.53174e-10
2.56033e-10
1.8253e-10
2.52622e-10
1.1582e-10
2.31361e-10
5.8675e-11
1.90659e-10
1.74495e-11
1.29635e-10
4.88786e-11
9.7628e-12
-5.82369e-11
2.59373e-11
-1.17943e-10
3.86543e-11
-1.32395e-10
4.02175e-11
-1.10504e-10
2.44384e-11
-5.95318e-11
-1.36527e-11
1.42533e-11
-7.79907e-11
1.05508e-10
-1.71617e-10
2.09752e-10
-2.96796e-10
3.23263e-10
-4.55114e-10
4.42972e-10
-6.47578e-10
5.66369e-10
-8.74698e-10
6.91414e-10
-1.13657e-09
8.16454e-10
-1.43292e-09
9.40165e-10
-1.76322e-09
1.06149e-09
-2.12669e-09
1.17959e-09
-2.52234e-09
1.29383e-09
-2.94906e-09
1.40369e-09
-3.4056e-09
1.50881e-09
-3.89064e-09
1.60892e-09
-4.40278e-09
1.70382e-09
-4.94057e-09
1.79342e-09
-5.50254e-09
1.87764e-09
-6.0872e-09
1.95648e-09
-6.69307e-09
2.02996e-09
-7.31865e-09
2.09814e-09
-7.96248e-09
2.1611e-09
-8.62309e-09
2.21893e-09
-9.29905e-09
2.27174e-09
-9.98897e-09
2.31965e-09
-1.06915e-08
2.36279e-09
-1.14052e-08
2.40127e-09
-1.21288e-08
2.43523e-09
-1.2861e-08
2.46479e-09
-1.36006e-08
2.49007e-09
-1.43464e-08
2.51119e-09
-1.50971e-08
2.52826e-09
-1.58516e-08
2.54138e-09
-1.66087e-08
2.55065e-09
-1.73673e-08
2.55615e-09
-1.81264e-08
2.55798e-09
-1.88848e-08
2.5562e-09
-1.96415e-08
2.55087e-09
-2.03954e-08
2.54206e-09
-2.11455e-08
2.52982e-09
-2.18909e-08
2.51417e-09
-2.26304e-08
2.49517e-09
-2.33631e-08
2.47283e-09
-2.4088e-08
2.44719e-09
-2.48041e-08
2.41825e-09
-2.55104e-08
2.38604e-09
-2.6206e-08
2.35056e-09
-2.68898e-08
2.31182e-09
-2.7561e-08
2.26982e-09
-2.82185e-08
2.22457e-09
-2.88614e-08
2.17606e-09
-2.94887e-08
2.1243e-09
-3.00994e-08
2.0693e-09
-3.06927e-08
2.01105e-09
-3.12674e-08
1.94957e-09
-3.18228e-08
1.88487e-09
-3.23578e-08
1.81695e-09
-3.28716e-08
1.74585e-09
-3.33631e-08
1.67158e-09
-3.38315e-08
1.59417e-09
-3.42759e-08
1.51367e-09
-3.46954e-08
1.43012e-09
-3.50891e-08
1.34356e-09
-3.54562e-08
1.25407e-09
-3.57959e-08
1.16172e-09
-3.61073e-08
1.06657e-09
-3.63897e-08
9.68736e-10
-3.66423e-08
8.68302e-10
-3.68644e-08
7.65382e-10
-3.70554e-08
6.601e-10
-3.72147e-08
5.52586e-10
-3.73415e-08
4.42986e-10
-3.74355e-08
3.31453e-10
-3.74961e-08
2.18154e-10
-3.75228e-08
1.03266e-10
-3.75153e-08
-1.30223e-11
-3.74733e-08
-1.30512e-10
-3.73965e-08
-2.48993e-10
-3.72846e-08
-3.68246e-10
-3.71376e-08
-4.88041e-10
-3.69554e-08
-6.08138e-10
-3.6738e-08
-7.28288e-10
-3.64855e-08
-8.48235e-10
-3.6198e-08
-9.67715e-10
-3.58757e-08
-1.08645e-09
-3.55191e-08
-1.20418e-09
-3.51285e-08
-1.3206e-09
-3.47043e-08
-1.43543e-09
-3.42471e-08
-1.54839e-09
-3.37577e-08
-1.65916e-09
-3.32366e-08
-1.76747e-09
-3.26848e-08
-1.87301e-09
-3.21031e-08
-1.97549e-09
-3.14925e-08
-2.07461e-09
-3.08541e-08
-2.17009e-09
-3.01891e-08
-2.26163e-09
-2.94986e-08
-2.34895e-09
-2.8784e-08
-2.43178e-09
-2.80466e-08
-2.50986e-09
-2.72879e-08
-2.58292e-09
-2.65095e-08
-2.65071e-09
-2.57129e-08
-2.713e-09
-2.48998e-08
-2.76957e-09
-2.40719e-08
-2.82021e-09
-2.32309e-08
-2.86471e-09
-2.23787e-08
-2.90291e-09
-2.15172e-08
-2.93464e-09
-2.06483e-08
-2.95976e-09
-1.97738e-08
-2.97814e-09
-1.88958e-08
-2.98968e-09
-1.80163e-08
-2.9943e-09
-1.71373e-08
-2.99193e-09
-1.62607e-08
-2.98253e-09
-1.53887e-08
-2.96609e-09
-1.45232e-08
-2.9426e-09
-1.36663e-08
-2.91211e-09
-1.282e-08
-2.87466e-09
-1.19861e-08
-2.83033e-09
-1.11668e-08
-2.77921e-09
-1.03638e-08
-2.72145e-09
-9.57913e-09
-2.65719e-09
-8.8145e-09
-2.5866e-09
-8.07169e-09
-2.50988e-09
-7.3524e-09
-2.42727e-09
-6.65823e-09
-2.33901e-09
-5.99073e-09
-2.24538e-09
-5.35134e-09
-2.14668e-09
-4.74141e-09
-2.04324e-09
-4.16218e-09
-1.93542e-09
-3.61481e-09
-1.82359e-09
-3.10029e-09
-1.70817e-09
-2.61951e-09
-1.58959e-09
-2.17324e-09
-1.46833e-09
-1.76206e-09
-1.34489e-09
-1.38642e-09
-1.21981e-09
-1.0466e-09
-1.09367e-09
-7.42689e-10
-9.671e-10
-4.74598e-10
-8.40768e-10
-2.42016e-10
-7.15405e-10
-4.4414e-11
-5.91806e-10
1.1898e-10
-4.70837e-10
2.492e-10
-3.53452e-10
3.47561e-10
-2.40701e-10
4.15685e-10
-1.33748e-10
4.55528e-10
-3.38883e-11
4.69401e-10
5.74348e-11
4.6e-10
1.38609e-10
4.30434e-10
2.07837e-10
3.84246e-10
2.63128e-10
3.25438e-10
3.02295e-10
2.58487e-10
3.22983e-10
1.88382e-10
3.22728e-10
1.20676e-10
2.99067e-10
6.16143e-11
2.4972e-10
1.84111e-11
1.72838e-10
6.72897e-11
6.43717e-12
-6.4674e-11
1.39598e-11
-1.25465e-10
1.32544e-11
-1.31689e-10
-3.13237e-12
-9.4117e-11
-4.12532e-11
-2.14109e-11
-1.05998e-10
7.8998e-11
-2.0126e-10
2.00771e-10
-3.30068e-10
3.3856e-10
-4.9469e-10
4.87884e-10
-6.96727e-10
6.45009e-10
-9.372e-10
8.06843e-10
-1.21663e-09
9.70839e-10
-1.53509e-09
1.13492e-09
-1.8923e-09
1.29738e-09
-2.28769e-09
1.45687e-09
-2.72039e-09
1.6123e-09
-3.18937e-09
1.7628e-09
-3.69338e-09
1.90771e-09
-4.23109e-09
2.04652e-09
-4.80103e-09
2.17885e-09
-5.40165e-09
2.30444e-09
-6.03135e-09
2.42313e-09
-6.68851e-09
2.5348e-09
-7.37146e-09
2.63943e-09
-8.07854e-09
2.73704e-09
-8.80806e-09
2.82767e-09
-9.55838e-09
2.91142e-09
-1.03279e-08
2.9884e-09
-1.11148e-08
3.05874e-09
-1.19178e-08
3.12258e-09
-1.27351e-08
3.18007e-09
-1.35652e-08
3.23138e-09
-1.44066e-08
3.27666e-09
-1.52579e-08
3.31606e-09
-1.61175e-08
3.34974e-09
-1.69842e-08
3.37785e-09
-1.78565e-08
3.40053e-09
-1.8733e-08
3.41791e-09
-1.96125e-08
3.43012e-09
-2.04936e-08
3.43727e-09
-2.13751e-08
3.43947e-09
-2.22557e-08
3.4368e-09
-2.31342e-08
3.42936e-09
-2.40093e-08
3.41722e-09
-2.488e-08
3.40044e-09
-2.57449e-08
3.37908e-09
-2.66029e-08
3.35319e-09
-2.74529e-08
3.3228e-09
-2.82936e-08
3.28795e-09
-2.9124e-08
3.24867e-09
-2.9943e-08
3.20496e-09
-3.07492e-08
3.15685e-09
-3.15418e-08
3.10435e-09
-3.23194e-08
3.04746e-09
-3.3081e-08
2.98619e-09
-3.38255e-08
2.92056e-09
-3.45518e-08
2.85055e-09
-3.52587e-08
2.77619e-09
-3.59451e-08
2.69748e-09
-3.661e-08
2.61443e-09
-3.72522e-08
2.52707e-09
-3.78706e-08
2.43541e-09
-3.84643e-08
2.33948e-09
-3.9032e-08
2.23933e-09
-3.95728e-08
2.135e-09
-4.00857e-08
2.02653e-09
-4.05696e-08
1.914e-09
-4.10235e-08
1.79747e-09
-4.14465e-08
1.67704e-09
-4.18375e-08
1.55281e-09
-4.21958e-08
1.42487e-09
-4.25205e-08
1.29336e-09
-4.28106e-08
1.15842e-09
-4.30654e-08
1.02018e-09
-4.32841e-08
8.78823e-10
-4.3466e-08
7.34522e-10
-4.36105e-08
5.87471e-10
-4.3717e-08
4.37879e-10
-4.37848e-08
2.85969e-10
-4.38135e-08
1.31979e-10
-4.38027e-08
-2.38392e-11
-4.3752e-08
-1.81219e-10
-4.36611e-08
-3.3988e-10
-4.35298e-08
-4.99528e-10
-4.3358e-08
-6.59856e-10
-4.31456e-08
-8.20546e-10
-4.28926e-08
-9.81267e-10
-4.25992e-08
-1.14168e-09
-4.22654e-08
-1.30142e-09
-4.18917e-08
-1.46015e-09
-4.14784e-08
-1.61748e-09
-4.1026e-08
-1.77304e-09
-4.0535e-08
-1.92645e-09
-4.0006e-08
-2.07733e-09
-3.94399e-08
-2.22527e-09
-3.88375e-08
-2.3699e-09
-3.81997e-08
-2.51082e-09
-3.75275e-08
-2.64764e-09
-3.68222e-08
-2.77997e-09
-3.60849e-08
-2.90742e-09
-3.53169e-08
-3.02962e-09
-3.45196e-08
-3.14619e-09
-3.36947e-08
-3.25677e-09
-3.28435e-08
-3.361e-09
-3.19679e-08
-3.45856e-09
-3.10695e-08
-3.5491e-09
-3.01502e-08
-3.63232e-09
-2.92118e-08
-3.70793e-09
-2.82564e-08
-3.77564e-09
-2.72859e-08
-3.8352e-09
-2.63024e-08
-3.88638e-09
-2.53081e-08
-3.92896e-09
-2.43051e-08
-3.96275e-09
-2.32957e-08
-3.98759e-09
-2.2282e-08
-4.00334e-09
-2.12664e-08
-4.0099e-09
-2.02512e-08
-4.00718e-09
-1.92386e-08
-3.99512e-09
-1.82309e-08
-3.97372e-09
-1.72306e-08
-3.94296e-09
-1.62398e-08
-3.90291e-09
-1.52608e-08
-3.85361e-09
-1.4296e-08
-3.79519e-09
-1.33474e-08
-3.72777e-09
-1.24173e-08
-3.65152e-09
-1.15079e-08
-3.56665e-09
-1.06211e-08
-3.47339e-09
-9.75896e-09
-3.372e-09
-8.92343e-09
-3.2628e-09
-8.11634e-09
-3.14611e-09
-7.33942e-09
-3.0223e-09
-6.59432e-09
-2.89178e-09
-5.88258e-09
-2.75499e-09
-5.20561e-09
-2.61239e-09
-4.56469e-09
-2.4645e-09
-3.96099e-09
-2.31187e-09
-3.3955e-09
-2.15508e-09
-2.86908e-09
-1.99476e-09
-2.38239e-09
-1.83158e-09
-1.93594e-09
-1.66626e-09
-1.53003e-09
-1.49957e-09
-1.16478e-09
-1.33235e-09
-8.40071e-10
-1.16548e-09
-5.55552e-10
-9.99924e-10
-3.10629e-10
-8.36728e-10
-1.04442e-10
-6.77025e-10
6.41593e-11
-5.22053e-10
1.96629e-10
-3.7317e-10
2.94749e-10
-2.31869e-10
3.60654e-10
-9.97939e-11
3.96854e-10
2.12354e-11
4.06253e-10
1.29209e-10
3.92181e-10
2.2191e-10
3.58406e-10
2.96902e-10
3.09169e-10
3.51532e-10
2.49206e-10
3.82947e-10
1.83798e-10
3.88135e-10
1.18864e-10
3.64001e-10
6.11112e-11
3.07473e-10
1.83254e-11
2.15624e-10
8.5615e-11
2.50628e-12
-6.71803e-11
-2.83764e-13
-1.22675e-10
-1.68475e-11
-1.15125e-10
-5.41476e-11
-5.68169e-11
-1.1791e-10
4.2351e-11
-2.12794e-10
1.73882e-10
-3.42532e-10
3.30508e-10
-5.10034e-10
5.06063e-10
-7.17488e-10
6.95338e-10
-9.66436e-10
8.93957e-10
-1.25785e-09
1.09826e-09
-1.59221e-09
1.3052e-09
-1.96956e-09
1.51226e-09
-2.38956e-09
1.71739e-09
-2.85158e-09
1.91889e-09
-3.35471e-09
2.11542e-09
-3.89779e-09
2.30589e-09
-4.47953e-09
2.48945e-09
-5.09846e-09
2.66545e-09
-5.753e-09
2.83339e-09
-6.44148e-09
2.99292e-09
-7.16216e-09
3.14381e-09
-7.91326e-09
3.28591e-09
-8.69298e-09
3.41915e-09
-9.49948e-09
3.54353e-09
-1.03309e-08
3.65911e-09
-1.11855e-08
3.76598e-09
-1.20614e-08
3.86427e-09
-1.29567e-08
3.95411e-09
-1.38698e-08
4.03569e-09
-1.47989e-08
4.10918e-09
-1.57423e-08
4.17476e-09
-1.66983e-08
4.23263e-09
-1.76652e-08
4.28298e-09
-1.86415e-08
4.32599e-09
-1.96255e-08
4.36184e-09
-2.06156e-08
4.39071e-09
-2.16105e-08
4.41276e-09
-2.26085e-08
4.42814e-09