/*--------------------------------*- C++ -*----------------------------------*\
| =========                 |                                                 |
| \\      /  F ield         | OpenFOAM: The Open Source CFD Toolbox           |
|  \\    /   O peration     | Version:  2.1.1                                 |
|   \\  /    A nd           | Web:      www.OpenFOAM.org                      |
|    \\/     M anipulation  |                                                 |
\*---------------------------------------------------------------------------*/
FoamFile
{
    version     2.0;
    format      ascii;
    class       volVectorField;
    location    "1.4";
    object      U;
}
// * * * * * * * * * * * * * * * * * * * * * * * * * * * * * * * * * * * * * //

dimensions      [0 1 -1 0 0 0 0];

internalField   nonuniform List<vector> 
25921
(
(3.1969e-07 -3.19814e-07 0)
(3.51433e-06 -2.10231e-06 0)
(1.05538e-05 -3.18111e-06 0)
(1.90994e-05 -3.48765e-06 0)
(2.74504e-05 -3.28417e-06 0)
(3.4565e-05 -2.76502e-06 0)
(3.9751e-05 -2.05484e-06 0)
(4.25541e-05 -1.23448e-06 0)
(4.26925e-05 -3.55749e-07 0)
(4.00048e-05 5.48012e-07 0)
(3.44136e-05 1.45478e-06 0)
(2.59018e-05 2.34972e-06 0)
(1.4496e-05 3.22273e-06 0)
(2.54432e-07 4.0668e-06 0)
(-1.67413e-05 4.87723e-06 0)
(-3.63931e-05 5.65089e-06 0)
(-5.85909e-05 6.38581e-06 0)
(-8.32166e-05 7.08091e-06 0)
(-0.000110147 7.73575e-06 0)
(-0.000139256 8.35041e-06 0)
(-0.000170416 8.92532e-06 0)
(-0.0002035 9.46121e-06 0)
(-0.000238382 9.95904e-06 0)
(-0.000274938 1.04199e-05 0)
(-0.000313046 1.0845e-05 0)
(-0.000352589 1.12356e-05 0)
(-0.000393451 1.15929e-05 0)
(-0.000435522 1.19185e-05 0)
(-0.000478695 1.22135e-05 0)
(-0.000522865 1.24793e-05 0)
(-0.000567934 1.2717e-05 0)
(-0.000613805 1.29281e-05 0)
(-0.000660387 1.31135e-05 0)
(-0.000707589 1.32744e-05 0)
(-0.000755328 1.34119e-05 0)
(-0.00080352 1.35268e-05 0)
(-0.000852087 1.362e-05 0)
(-0.000900951 1.36924e-05 0)
(-0.000950039 1.37447e-05 0)
(-0.000999277 1.37774e-05 0)
(-0.0010486 1.37913e-05 0)
(-0.00109793 1.37866e-05 0)
(-0.00114721 1.3764e-05 0)
(-0.00119637 1.37237e-05 0)
(-0.00124535 1.3666e-05 0)
(-0.00129408 1.35911e-05 0)
(-0.0013425 1.34992e-05 0)
(-0.00139055 1.33905e-05 0)
(-0.00143817 1.32649e-05 0)
(-0.00148529 1.31225e-05 0)
(-0.00153185 1.29633e-05 0)
(-0.0015778 1.27872e-05 0)
(-0.00162307 1.25941e-05 0)
(-0.0016676 1.23841e-05 0)
(-0.00171133 1.21568e-05 0)
(-0.00175419 1.19123e-05 0)
(-0.00179613 1.16503e-05 0)
(-0.00183707 1.13708e-05 0)
(-0.00187697 1.10737e-05 0)
(-0.00191575 1.07587e-05 0)
(-0.00195335 1.04259e-05 0)
(-0.0019897 1.00752e-05 0)
(-0.00202476 9.70641e-06 0)
(-0.00205844 9.31964e-06 0)
(-0.00209069 8.91489e-06 0)
(-0.00212144 8.49221e-06 0)
(-0.00215064 8.05172e-06 0)
(-0.00217822 7.59356e-06 0)
(-0.00220411 7.11795e-06 0)
(-0.00222827 6.62516e-06 0)
(-0.00225063 6.11551e-06 0)
(-0.00227113 5.58938e-06 0)
(-0.00228972 5.04724e-06 0)
(-0.00230634 4.48961e-06 0)
(-0.00232094 3.91707e-06 0)
(-0.00233348 3.33029e-06 0)
(-0.0023439 2.73e-06 0)
(-0.00235216 2.11703e-06 0)
(-0.00235822 1.49224e-06 0)
(-0.00236204 8.56607e-07 0)
(-0.00236359 2.11155e-07 0)
(-0.00236284 -4.43006e-07 0)
(-0.00235976 -1.10469e-06 0)
(-0.00235433 -1.77266e-06 0)
(-0.00234654 -2.44558e-06 0)
(-0.00233636 -3.12206e-06 0)
(-0.00232379 -3.80067e-06 0)
(-0.00230883 -4.47987e-06 0)
(-0.00229148 -5.15812e-06 0)
(-0.00227174 -5.83377e-06 0)
(-0.00224965 -6.50517e-06 0)
(-0.0022252 -7.1706e-06 0)
(-0.00219844 -7.82832e-06 0)
(-0.00216938 -8.47653e-06 0)
(-0.00213807 -9.11344e-06 0)
(-0.00210455 -9.73722e-06 0)
(-0.00206888 -1.0346e-05 0)
(-0.00203111 -1.09381e-05 0)
(-0.00199129 -1.15114e-05 0)
(-0.00194952 -1.20643e-05 0)
(-0.00190584 -1.2595e-05 0)
(-0.00186036 -1.31016e-05 0)
(-0.00181315 -1.35824e-05 0)
(-0.00176431 -1.40357e-05 0)
(-0.00171394 -1.44599e-05 0)
(-0.00166215 -1.48534e-05 0)
(-0.00160904 -1.52147e-05 0)
(-0.00155472 -1.55423e-05 0)
(-0.00149932 -1.58348e-05 0)
(-0.00144297 -1.60911e-05 0)
(-0.00138578 -1.63099e-05 0)
(-0.00132789 -1.64902e-05 0)
(-0.00126944 -1.66311e-05 0)
(-0.00121057 -1.67317e-05 0)
(-0.0011514 -1.67913e-05 0)
(-0.0010921 -1.68093e-05 0)
(-0.0010328 -1.67853e-05 0)
(-0.000973646 -1.6719e-05 0)
(-0.000914787 -1.66103e-05 0)
(-0.000856368 -1.6459e-05 0)
(-0.000798536 -1.62654e-05 0)
(-0.000741438 -1.60296e-05 0)
(-0.000685217 -1.57522e-05 0)
(-0.000630016 -1.54336e-05 0)
(-0.000575976 -1.50745e-05 0)
(-0.000523235 -1.46759e-05 0)
(-0.000471926 -1.42386e-05 0)
(-0.000422181 -1.37638e-05 0)
(-0.000374127 -1.32529e-05 0)
(-0.000327885 -1.27071e-05 0)
(-0.000283572 -1.2128e-05 0)
(-0.000241298 -1.15174e-05 0)
(-0.000201168 -1.0877e-05 0)
(-0.00016328 -1.02087e-05 0)
(-0.000127725 -9.51476e-06 0)
(-9.45864e-05 -8.79724e-06 0)
(-6.39378e-05 -8.05857e-06 0)
(-3.58457e-05 -7.30127e-06 0)
(-1.03663e-05 -6.52803e-06 0)
(1.24538e-05 -5.74179e-06 0)
(3.25793e-05 -4.94555e-06 0)
(4.99863e-05 -4.1427e-06 0)
(6.46638e-05 -3.33688e-06 0)
(7.66146e-05 -2.53209e-06 0)
(8.58567e-05 -1.73277e-06 0)
(9.2425e-05 -9.43903e-07 0)
(9.63737e-05 -1.71201e-07 0)
(9.77782e-05 5.78717e-07 0)
(9.67394e-05 1.29799e-06 0)
(9.33869e-05 1.97724e-06 0)
(8.7885e-05 2.6048e-06 0)
(8.044e-05 3.16596e-06 0)
(7.13093e-05 3.64163e-06 0)
(6.08141e-05 4.00641e-06 0)
(4.9357e-05 4.22551e-06 0)
(3.74459e-05 4.25046e-06 0)
(2.57243e-05 4.01485e-06 0)
(1.49992e-05 3.4335e-06 0)
(6.26062e-06 2.40706e-06 0)
(7.0749e-07 8.95481e-07 0)
(-5.54396e-07 -5.53682e-07 0)
(2.10333e-06 -3.5141e-06 0)
(1.07102e-05 -1.0705e-05 0)
(2.57477e-05 -1.47324e-05 0)
(4.28818e-05 -1.56305e-05 0)
(5.88956e-05 -1.42021e-05 0)
(7.15931e-05 -1.1144e-05 0)
(7.93306e-05 -6.97922e-06 0)
(8.09221e-05 -2.09064e-06 0)
(7.55623e-05 3.24652e-06 0)
(6.27384e-05 8.83484e-06 0)
(4.21582e-05 1.45314e-05 0)
(1.36975e-05 2.02323e-05 0)
(-2.2641e-05 2.58612e-05 0)
(-6.67577e-05 3.13619e-05 0)
(-0.00011848 3.66935e-05 0)
(-0.000177581 4.18265e-05 0)
(-0.000243794 4.67398e-05 0)
(-0.000316821 5.14195e-05 0)
(-0.000396345 5.58564e-05 0)
(-0.000482035 6.00457e-05 0)
(-0.000573552 6.39857e-05 0)
(-0.000670554 6.76773e-05 0)
(-0.000772698 7.11231e-05 0)
(-0.000879644 7.43274e-05 0)
(-0.000991057 7.72956e-05 0)
(-0.00110661 8.00338e-05 0)
(-0.00122597 8.25487e-05 0)
(-0.00134884 8.48475e-05 0)
(-0.00147491 8.69375e-05 0)
(-0.00160388 8.88261e-05 0)
(-0.00173547 9.05206e-05 0)
(-0.0018694 9.20281e-05 0)
(-0.00200541 9.33557e-05 0)
(-0.00214324 9.45099e-05 0)
(-0.00228264 9.5497e-05 0)
(-0.00242337 9.6323e-05 0)
(-0.00256519 9.69934e-05 0)
(-0.00270789 9.75132e-05 0)
(-0.00285124 9.7887e-05 0)
(-0.00299503 9.8119e-05 0)
(-0.00313906 9.82129e-05 0)
(-0.00328312 9.8172e-05 0)
(-0.003427 9.79991e-05 0)
(-0.00357053 9.76967e-05 0)
(-0.00371351 9.72666e-05 0)
(-0.00385575 9.67106e-05 0)
(-0.00399705 9.603e-05 0)
(-0.00413725 9.52256e-05 0)
(-0.00427616 9.42982e-05 0)
(-0.00441358 9.32481e-05 0)
(-0.00454935 9.20755e-05 0)
(-0.00468328 9.07803e-05 0)
(-0.00481519 8.93623e-05 0)
(-0.00494489 8.78211e-05 0)
(-0.00507221 8.61564e-05 0)
(-0.00519696 8.43677e-05 0)
(-0.00531896 8.24544e-05 0)
(-0.00543803 8.0416e-05 0)
(-0.00555398 7.82521e-05 0)
(-0.00566663 7.59623e-05 0)
(-0.00577579 7.35463e-05 0)
(-0.00588129 7.10042e-05 0)
(-0.00598293 6.83359e-05 0)
(-0.00608053 6.55419e-05 0)
(-0.00617392 6.26226e-05 0)
(-0.00626291 5.95789e-05 0)
(-0.00634732 5.6412e-05 0)
(-0.00642698 5.31234e-05 0)
(-0.00650171 4.97148e-05 0)
(-0.00657133 4.61886e-05 0)
(-0.00663569 4.25473e-05 0)
(-0.00669462 3.87939e-05 0)
(-0.00674797 3.49321e-05 0)
(-0.00679557 3.09657e-05 0)
(-0.00683729 2.68991e-05 0)
(-0.00687298 2.27371e-05 0)
(-0.00690251 1.84853e-05 0)
(-0.00692577 1.41493e-05 0)
(-0.00694263 9.73558e-06 0)
(-0.006953 5.25096e-06 0)
(-0.00695677 7.02749e-07 0)
(-0.00695387 -3.90124e-06 0)
(-0.00694422 -8.55272e-06 0)
(-0.00692776 -1.32429e-05 0)
(-0.00690446 -1.79627e-05 0)
(-0.00687427 -2.27024e-05 0)
(-0.00683718 -2.74519e-05 0)
(-0.00679319 -3.22009e-05 0)
(-0.0067423 -3.69385e-05 0)
(-0.00668455 -4.16536e-05 0)
(-0.00661997 -4.63348e-05 0)
(-0.00654864 -5.09703e-05 0)
(-0.00647063 -5.55483e-05 0)
(-0.00638603 -6.00567e-05 0)
(-0.00629495 -6.44831e-05 0)
(-0.00619753 -6.88151e-05 0)
(-0.00609391 -7.30405e-05 0)
(-0.00598426 -7.71467e-05 0)
(-0.00586876 -8.11213e-05 0)
(-0.00574761 -8.49521e-05 0)
(-0.00562104 -8.86268e-05 0)
(-0.00548927 -9.21337e-05 0)
(-0.00535255 -9.54608e-05 0)
(-0.00521117 -9.8597e-05 0)
(-0.00506539 -0.000101531 0)
(-0.00491553 -0.000104253 0)
(-0.00476189 -0.000106751 0)
(-0.0046048 -0.000109018 0)
(-0.00444461 -0.000111043 0)
(-0.00428167 -0.000112818 0)
(-0.00411635 -0.000114336 0)
(-0.00394901 -0.000115589 0)
(-0.00378005 -0.000116571 0)
(-0.00360986 -0.000117277 0)
(-0.00343885 -0.000117703 0)
(-0.0032674 -0.000117844 0)
(-0.00309595 -0.000117697 0)
(-0.0029249 -0.000117261 0)
(-0.00275467 -0.000116535 0)
(-0.00258567 -0.000115518 0)
(-0.00241832 -0.000114212 0)
(-0.00225304 -0.000112619 0)
(-0.00209023 -0.000110741 0)
(-0.00193031 -0.000108583 0)
(-0.00177366 -0.000106149 0)
(-0.00162069 -0.000103445 0)
(-0.00147177 -0.000100479 0)
(-0.00132726 -9.72584e-05 0)
(-0.00118754 -9.3792e-05 0)
(-0.00105295 -9.00897e-05 0)
(-0.000923802 -8.61624e-05 0)
(-0.000800424 -8.20221e-05 0)
(-0.000683108 -7.76817e-05 0)
(-0.000572127 -7.31549e-05 0)
(-0.000467736 -6.84566e-05 0)
(-0.000370166 -6.36029e-05 0)
(-0.000279625 -5.86106e-05 0)
(-0.000196293 -5.34982e-05 0)
(-0.000120323 -4.82851e-05 0)
(-5.18406e-05 -4.29923e-05 0)
(9.06436e-06 -3.76424e-05 0)
(6.23346e-05 -3.22596e-05 0)
(0.000107951 -2.68707e-05 0)
(0.000145934 -2.15047e-05 0)
(0.000176351 -1.61939e-05 0)
(0.000199319 -1.09742e-05 0)
(0.000215008 -5.88633e-06 0)
(0.000223653 -9.76764e-07 0)
(0.00022556 3.70061e-06 0)
(0.000221116 8.08265e-06 0)
(0.000210803 1.20939e-05 0)
(0.000195217 1.56433e-05 0)
(0.000175084 1.86191e-05 0)
(0.000151287 2.08826e-05 0)
(0.000124895 2.22603e-05 0)
(9.71984e-05 2.25355e-05 0)
(6.97353e-05 2.14468e-05 0)
(4.42825e-05 1.87079e-05 0)
(2.27946e-05 1.40655e-05 0)
(7.5383e-06 7.54812e-06 0)
(8.90733e-07 7.0585e-07 0)
(3.1894e-06 -1.0561e-05 0)
(1.47681e-05 -2.57515e-05 0)
(3.34745e-05 -3.3416e-05 0)
(5.35568e-05 -3.43127e-05 0)
(7.09649e-05 -2.98872e-05 0)
(8.28804e-05 -2.14937e-05 0)
(8.70804e-05 -1.02486e-05 0)
(8.18797e-05 2.96944e-06 0)
(6.60771e-05 1.74868e-05 0)
(3.88645e-05 3.27926e-05 0)
(-2.53204e-07 4.84993e-05 0)
(-5.15234e-05 6.43141e-05 0)
(-0.000114999 8.00151e-05 0)
(-0.000190579 9.54345e-05 0)
(-0.000278045 0.000110446 0)
(-0.000377088 0.000124957 0)
(-0.000487327 0.000138897 0)
(-0.000608332 0.000152218 0)
(-0.000739633 0.000164886 0)
(-0.000880732 0.000176881 0)
(-0.00103112 0.000188192 0)
(-0.00119026 0.000198816 0)
(-0.00135764 0.000208754 0)
(-0.00153273 0.000218016 0)
(-0.00171499 0.000226612 0)
(-0.00190392 0.000234557 0)
(-0.00209901 0.000241867 0)
(-0.00229976 0.000248559 0)
(-0.00250569 0.000254653 0)
(-0.00271633 0.000260167 0)
(-0.00293121 0.00026512 0)
(-0.0031499 0.000269531 0)
(-0.00337197 0.000273419 0)
(-0.003597 0.000276802 0)
(-0.00382458 0.000279696 0)
(-0.00405433 0.000282119 0)
(-0.00428586 0.000284084 0)
(-0.00451881 0.000285606 0)
(-0.00475282 0.000286698 0)
(-0.00498753 0.00028737 0)
(-0.00522262 0.000287635 0)
(-0.00545774 0.0002875 0)
(-0.00569257 0.000286974 0)
(-0.00592678 0.000286064 0)
(-0.00616007 0.000284776 0)
(-0.00639213 0.000283114 0)
(-0.00662263 0.000281082 0)
(-0.00685129 0.000278684 0)
(-0.0070778 0.000275921 0)
(-0.00730185 0.000272795 0)
(-0.00752315 0.000269306 0)
(-0.00774141 0.000265456 0)
(-0.00795631 0.000261243 0)
(-0.00816756 0.000256667 0)
(-0.00837488 0.000251728 0)
(-0.00857794 0.000246425 0)
(-0.00877647 0.000240756 0)
(-0.00897015 0.00023472 0)
(-0.00915869 0.000228318 0)
(-0.00934179 0.000221548 0)
(-0.00951915 0.00021441 0)
(-0.00969047 0.000206905 0)
(-0.00985546 0.000199034 0)
(-0.0100138 0.000190798 0)
(-0.0101652 0.000182198 0)
(-0.0103095 0.00017324 0)
(-0.0104462 0.000163925 0)
(-0.0105751 0.000154259 0)
(-0.0106959 0.000144249 0)
(-0.0108084 0.0001339 0)
(-0.0109123 0.000123221 0)
(-0.0110073 0.000112221 0)
(-0.0110932 0.000100912 0)
(-0.0111698 8.93036e-05 0)
(-0.0112367 7.74102e-05 0)
(-0.0112939 6.52461e-05 0)
(-0.011341 5.28272e-05 0)
(-0.0113779 4.01706e-05 0)
(-0.0114044 2.72951e-05 0)
(-0.0114203 1.42206e-05 0)
(-0.0114256 9.68563e-07 0)
(-0.01142 -1.24383e-05 0)
(-0.0114034 -2.59759e-05 0)
(-0.0113759 -3.96188e-05 0)
(-0.0113372 -5.33404e-05 0)
(-0.0112874 -6.71128e-05 0)
(-0.0112264 -8.0907e-05 0)
(-0.0111543 -9.4693e-05 0)
(-0.011071 -0.00010844 0)
(-0.0109766 -0.000122115 0)
(-0.0108712 -0.000135686 0)
(-0.0107549 -0.000149119 0)
(-0.0106278 -0.000162381 0)
(-0.01049 -0.000175435 0)
(-0.0103418 -0.000188248 0)
(-0.0101834 -0.000200784 0)
(-0.010015 -0.000213007 0)
(-0.00983693 -0.000224882 0)
(-0.0096494 -0.000236373 0)
(-0.00945277 -0.000247446 0)
(-0.00924739 -0.000258066 0)
(-0.00903366 -0.000268199 0)
(-0.00881197 -0.000277811 0)
(-0.00858275 -0.000286871 0)
(-0.00834647 -0.000295346 0)
(-0.00810361 -0.000303208 0)
(-0.00785467 -0.000310427 0)
(-0.00760018 -0.000316975 0)
(-0.00734069 -0.000322828 0)
(-0.00707676 -0.000327962 0)
(-0.00680899 -0.000332354 0)
(-0.00653798 -0.000335985 0)
(-0.00626433 -0.000338837 0)
(-0.00598869 -0.000340896 0)
(-0.00571169 -0.000342147 0)
(-0.00543398 -0.00034258 0)
(-0.00515623 -0.000342189 0)
(-0.00487908 -0.000340966 0)
(-0.00460322 -0.00033891 0)
(-0.0043293 -0.000336021 0)
(-0.00405798 -0.000332302 0)
(-0.00378994 -0.000327758 0)
(-0.00352582 -0.000322399 0)
(-0.00326627 -0.000316236 0)
(-0.00301193 -0.000309283 0)
(-0.00276342 -0.000301557 0)
(-0.00252134 -0.00029308 0)
(-0.0022863 -0.000283874 0)
(-0.00205885 -0.000273965 0)
(-0.00183955 -0.000263382 0)
(-0.00162892 -0.000252157 0)
(-0.00142746 -0.000240324 0)
(-0.00123564 -0.000227921 0)
(-0.00105388 -0.000214989 0)
(-0.000882597 -0.00020157 0)
(-0.000722149 -0.000187713 0)
(-0.000572862 -0.000173466 0)
(-0.000435018 -0.000158884 0)
(-0.000308856 -0.000144023 0)
(-0.000194564 -0.000128947 0)
(-9.22769e-05 -0.00011372 0)
(-2.07613e-06 -9.84157e-05 0)
(7.60199e-05 -8.31116e-05 0)
(0.000142059 -6.78933e-05 0)
(0.000196161 -5.28552e-05 0)
(0.000238527 -3.81023e-05 0)
(0.000269445 -2.37523e-05 0)
(0.000289304 -9.93872e-06 0)
(0.000298602 3.18567e-06 0)
(0.000297965 1.54438e-05 0)
(0.00028816 2.6629e-05 0)
(0.000270122 3.64973e-05 0)
(0.000244971 4.47588e-05 0)
(0.000214042 5.10681e-05 0)
(0.000178914 5.50151e-05 0)
(0.000141433 5.61215e-05 0)
(0.000103733 5.38571e-05 0)
(6.81749e-05 4.7703e-05 0)
(3.72569e-05 3.72925e-05 0)
(1.40317e-05 2.27946e-05 0)
(2.3937e-06 6.24412e-06 0)
(3.51021e-06 -1.91392e-05 0)
(1.57229e-05 -4.29391e-05 0)
(3.44855e-05 -5.35234e-05 0)
(5.3161e-05 -5.29571e-05 0)
(6.71843e-05 -4.35035e-05 0)
(7.33695e-05 -2.72439e-05 0)
(6.91542e-05 -5.94622e-06 0)
(5.25441e-05 1.89493e-05 0)
(2.20735e-05 4.62967e-05 0)
(-2.32795e-05 7.51959e-05 0)
(-8.41698e-05 0.000104944 0)
(-0.000160952 0.000134996 0)
(-0.000253736 0.000164927 0)
(-0.000362438 0.000194412 0)
(-0.000486818 0.000223199 0)
(-0.00062651 0.000251098 0)
(-0.000781054 0.000277966 0)
(-0.000949917 0.0003037 0)
(-0.00113251 0.000328226 0)
(-0.0013282 0.000351495 0)
(-0.00153633 0.000373476 0)
(-0.00175622 0.000394158 0)
(-0.00198718 0.000413537 0)
(-0.00222853 0.000431624 0)
(-0.00247958 0.000448435 0)
(-0.00273964 0.000463993 0)
(-0.00300803 0.000478325 0)
(-0.00328411 0.00049146 0)
(-0.00356722 0.000503433 0)
(-0.00385672 0.000514277 0)
(-0.00415201 0.000524025 0)
(-0.00445249 0.000532714 0)
(-0.00475756 0.000540376 0)
(-0.00506667 0.000547045 0)
(-0.00537926 0.000552752 0)
(-0.0056948 0.000557527 0)
(-0.00601277 0.000561398 0)
(-0.00633267 0.000564391 0)
(-0.00665399 0.000566532 0)
(-0.00697627 0.00056784 0)
(-0.00729902 0.000568337 0)
(-0.0076218 0.000568041 0)
(-0.00794414 0.000566965 0)
(-0.00826562 0.000565125 0)
(-0.00858578 0.000562531 0)
(-0.0089042 0.000559192 0)
(-0.00922046 0.000555117 0)
(-0.00953412 0.000550312 0)
(-0.00984478 0.000544781 0)
(-0.010152 0.000538528 0)
(-0.0104554 0.000531554 0)
(-0.0107546 0.00052386 0)
(-0.0110491 0.000515447 0)
(-0.0113385 0.000506315 0)
(-0.0116224 0.000496462 0)
(-0.0119005 0.000485888 0)
(-0.0121722 0.000474592 0)
(-0.0124373 0.000462572 0)
(-0.0126952 0.000449827 0)
(-0.0129455 0.000436359 0)
(-0.013188 0.000422167 0)
(-0.013422 0.000407252 0)
(-0.0136474 0.000391618 0)
(-0.0138635 0.000375269 0)
(-0.0140701 0.000358208 0)
(-0.0142668 0.000340444 0)
(-0.0144531 0.000321984 0)
(-0.0146287 0.00030284 0)
(-0.0147932 0.000283022 0)
(-0.0149462 0.000262546 0)
(-0.0150874 0.000241428 0)
(-0.0152163 0.000219688 0)
(-0.0153328 0.000197346 0)
(-0.0154365 0.000174425 0)
(-0.0155269 0.000150954 0)
(-0.015604 0.00012696 0)
(-0.0156673 0.000102475 0)
(-0.0157166 7.75328e-05 0)
(-0.0157517 5.2171e-05 0)
(-0.0157724 2.64288e-05 0)
(-0.0157785 3.48424e-07 0)
(-0.0157698 -2.60254e-05 0)
(-0.0157461 -5.26454e-05 0)
(-0.0157074 -7.94617e-05 0)
(-0.0156536 -0.000106422 0)
(-0.0155846 -0.000133472 0)
(-0.0155004 -0.000160555 0)
(-0.015401 -0.000187613 0)
(-0.0152864 -0.000214584 0)
(-0.0151567 -0.000241406 0)
(-0.015012 -0.000268015 0)
(-0.0148525 -0.000294347 0)
(-0.0146784 -0.000320334 0)
(-0.0144898 -0.000345909 0)
(-0.0142871 -0.000371005 0)
(-0.0140704 -0.000395551 0)
(-0.0138402 -0.000419481 0)
(-0.0135968 -0.000442724 0)
(-0.0133407 -0.000465212 0)
(-0.0130722 -0.000486879 0)
(-0.0127918 -0.000507656 0)
(-0.0125001 -0.000527478 0)
(-0.0121976 -0.000546281 0)
(-0.0118849 -0.000564002 0)
(-0.0115627 -0.000580581 0)
(-0.0112315 -0.000595959 0)
(-0.0108921 -0.000610082 0)
(-0.0105451 -0.000622897 0)
(-0.0101914 -0.000634354 0)
(-0.0098316 -0.000644408 0)
(-0.00946661 -0.000653017 0)
(-0.00909719 -0.000660142 0)
(-0.00872418 -0.00066575 0)
(-0.00834844 -0.000669811 0)
(-0.00797082 -0.000672301 0)
(-0.0075922 -0.000673199 0)
(-0.00721347 -0.00067249 0)
(-0.00683551 -0.000670164 0)
(-0.00645922 -0.000666217 0)
(-0.0060855 -0.00066065 0)
(-0.00571524 -0.000653468 0)
(-0.00534933 -0.000644682 0)
(-0.00498866 -0.000634312 0)
(-0.00463408 -0.000622378 0)
(-0.00428645 -0.00060891 0)
(-0.00394662 -0.000593941 0)
(-0.0036154 -0.000577512 0)
(-0.00329357 -0.000559667 0)
(-0.00298191 -0.000540459 0)
(-0.00268116 -0.000519943 0)
(-0.002392 -0.000498182 0)
(-0.00211511 -0.000475244 0)
(-0.00185111 -0.000451204 0)
(-0.00160059 -0.00042614 0)
(-0.00136408 -0.00040014 0)
(-0.00114205 -0.000373295 0)
(-0.000934956 -0.000345703 0)
(-0.000743155 -0.000317472 0)
(-0.000566962 -0.000288714 0)
(-0.000406621 -0.000259552 0)
(-0.000262305 -0.000230116 0)
(-0.000134111 -0.000200549 0)
(-2.20518e-05 -0.000171005 0)
(7.39482e-05 -0.000141652 0)
(0.000154063 -0.000112674 0)
(0.000218575 -8.42762e-05 0)
(0.00026788 -5.66867e-05 0)
(0.000302509 -3.0162e-05 0)
(0.000323132 -4.99284e-06 0)
(0.000330583 1.84882e-05 0)
(0.000325873 3.98987e-05 0)
(0.000310215 5.87956e-05 0)
(0.000285044 7.4665e-05 0)
(0.000252044 8.69115e-05 0)
(0.000213165 9.48522e-05 0)
(0.000170647 9.77221e-05 0)
(0.000127026 9.47101e-05 0)
(8.50638e-05 8.50509e-05 0)
(4.76762e-05 6.82083e-05 0)
(1.86605e-05 4.42621e-05 0)
(3.41108e-06 1.49519e-05 0)
(3.32557e-06 -2.75605e-05 0)
(1.43639e-05 -5.90691e-05 0)
(3.01886e-05 -7.10208e-05 0)
(4.38826e-05 -6.70114e-05 0)
(5.06403e-05 -5.02562e-05 0)
(4.70663e-05 -2.36109e-05 0)
(3.04143e-05 1.04869e-05 0)
(-1.48089e-06 5.00178e-05 0)
(-5.02419e-05 9.3338e-05 0)
(-0.000117026 0.000139125 0)
(-0.000202595 0.000186323 0)
(-0.000307383 0.000234094 0)
(-0.000431546 0.000281776 0)
(-0.000575014 0.000328848 0)
(-0.000737534 0.000374906 0)
(-0.000918703 0.000419635 0)
(-0.001118 0.000462797 0)
(-0.00133481 0.000504214 0)
(-0.00156845 0.000543755 0)
(-0.00181817 0.000581331 0)
(-0.0020832 0.000616884 0)
(-0.00236273 0.000650382 0)
(-0.00265594 0.000681816 0)
(-0.00296199 0.000711191 0)
(-0.00328005 0.000738526 0)
(-0.0036093 0.000763851 0)
(-0.0039489 0.000787205 0)
(-0.00429806 0.000808631 0)
(-0.00465597 0.000828176 0)
(-0.00502185 0.000845891 0)
(-0.00539495 0.000861827 0)
(-0.00577451 0.000876038 0)
(-0.00615982 0.000888575 0)
(-0.00655016 0.000899488 0)
(-0.00694485 0.000908826 0)
(-0.00734323 0.000916636 0)
(-0.00774462 0.000922961 0)
(-0.00814841 0.000927843 0)
(-0.00855396 0.00093132 0)
(-0.00896067 0.000933425 0)
(-0.00936795 0.000934192 0)
(-0.00977521 0.000933646 0)
(-0.0101819 0.000931815 0)
(-0.0105874 0.000928718 0)
(-0.0109912 0.000924375 0)
(-0.0113928 0.0009188 0)
(-0.0117916 0.000912008 0)
(-0.012187 0.000904007 0)
(-0.0125786 0.000894806 0)
(-0.0129658 0.000884411 0)
(-0.0133481 0.000872826 0)
(-0.0137249 0.000860053 0)
(-0.0140958 0.000846094 0)
(-0.0144603 0.000830949 0)
(-0.0148177 0.000814617 0)
(-0.0151676 0.000797098 0)
(-0.0155095 0.000778391 0)
(-0.0158428 0.000758496 0)
(-0.0161671 0.000737413 0)
(-0.0164818 0.000715142 0)
(-0.0167864 0.000691687 0)
(-0.0170804 0.000667051 0)
(-0.0173632 0.000641238 0)
(-0.0176345 0.000614257 0)
(-0.0178936 0.000586118 0)
(-0.0181402 0.000556832 0)
(-0.0183736 0.000526414 0)
(-0.0185935 0.000494883 0)
(-0.0187993 0.000462259 0)
(-0.0189907 0.000428567 0)
(-0.0191671 0.000393836 0)
(-0.0193281 0.000358097 0)
(-0.0194733 0.000321386 0)
(-0.0196024 0.000283742 0)
(-0.0197149 0.000245209 0)
(-0.0198104 0.000205836 0)
(-0.0198887 0.000165674 0)
(-0.0199495 0.00012478 0)
(-0.0199923 8.32142e-05 0)
(-0.0200171 4.10419e-05 0)
(-0.0200234 -1.66799e-06 0)
(-0.0200112 -4.48421e-05 0)
(-0.0199803 -8.84033e-05 0)
(-0.0199306 -0.00013227 0)
(-0.0198618 -0.000176357 0)
(-0.0197741 -0.000220577 0)
(-0.0196673 -0.000264836 0)
(-0.0195415 -0.000309039 0)
(-0.0193967 -0.000353088 0)
(-0.019233 -0.000396881 0)
(-0.0190506 -0.000440316 0)
(-0.0188497 -0.000483285 0)
(-0.0186304 -0.000525683 0)
(-0.0183932 -0.000567398 0)
(-0.0181382 -0.000608322 0)
(-0.0178659 -0.000648344 0)
(-0.0175767 -0.000687352 0)
(-0.017271 -0.000725236 0)
(-0.0169494 -0.000761885 0)
(-0.0166124 -0.000797189 0)
(-0.0162606 -0.000831041 0)
(-0.0158947 -0.000863336 0)
(-0.0155153 -0.000893968 0)
(-0.0151232 -0.000922839 0)
(-0.0147192 -0.00094985 0)
(-0.014304 -0.000974908 0)
(-0.0138785 -0.000997924 0)
(-0.0134437 -0.00101881 0)
(-0.0130003 -0.0010375 0)
(-0.0125494 -0.0010539 0)
(-0.012092 -0.00106796 0)
(-0.011629 -0.00107961 0)
(-0.0111615 -0.0010888 0)
(-0.0106906 -0.00109548 0)
(-0.0102172 -0.00109962 0)
(-0.00974258 -0.00110117 0)
(-0.00926772 -0.00110011 0)
(-0.00879375 -0.00109644 0)
(-0.00832178 -0.00109013 0)
(-0.00785291 -0.00108121 0)
(-0.00738826 -0.00106966 0)
(-0.00692892 -0.00105552 0)
(-0.00647598 -0.00103881 0)
(-0.00603052 -0.00101957 0)
(-0.00559359 -0.000997848 0)
(-0.00516622 -0.000973695 0)
(-0.00474942 -0.000947179 0)
(-0.00434418 -0.000918373 0)
(-0.00395144 -0.000887362 0)
(-0.0035721 -0.000854237 0)
(-0.00320702 -0.000819102 0)
(-0.00285704 -0.000782066 0)
(-0.00252291 -0.000743252 0)
(-0.00220536 -0.00070279 0)
(-0.00190503 -0.00066082 0)
(-0.00162253 -0.000617495 0)
(-0.00135838 -0.000572975 0)
(-0.00111303 -0.000527435 0)
(-0.000886856 -0.00048106 0)
(-0.000680159 -0.00043405 0)
(-0.000493141 -0.00038662 0)
(-0.000325911 -0.000339002 0)
(-0.000178475 -0.000291447 0)
(-5.07305e-05 -0.000244228 0)
(5.75469e-05 -0.000197645 0)
(0.000146711 -0.000152027 0)
(0.000217258 -0.00010774 0)
(0.000269837 -6.51907e-05 0)
(0.00030527 -2.48378e-05 0)
(0.000324562 1.28019e-05 0)
(0.000328926 4.7141e-05 0)
(0.000319796 7.75108e-05 0)
(0.000298852 0.00010315 0)
(0.000268037 0.000123194 0)
(0.000229577 0.000136677 0)
(0.00018599 0.000142541 0)
(0.000140107 0.000139683 0)
(9.50006e-05 0.000127054 0)
(5.39552e-05 0.00010383 0)
(2.14249e-05 6.97237e-05 0)
(3.98864e-06 2.56416e-05 0)
(2.82622e-06 -3.47861e-05 0)
(1.1368e-05 -7.19395e-05 0)
(2.18859e-05 -8.30671e-05 0)
(2.77044e-05 -7.32476e-05 0)
(2.40296e-05 -4.66873e-05 0)
(7.38583e-06 -7.03633e-06 0)
(-2.5041e-05 4.25938e-05 0)
(-7.54825e-05 9.96023e-05 0)
(-0.000145631 0.000161841 0)
(-0.000236712 0.000227552 0)
(-0.000349544 0.000295307 0)
(-0.000484603 0.000363954 0)
(-0.000642071 0.000432567 0)
(-0.000821884 0.00050041 0)
(-0.00102377 0.000566898 0)
(-0.00124731 0.000631574 0)
(-0.00149191 0.000694084 0)
(-0.0017569 0.000754158 0)
(-0.00204152 0.000811598 0)
(-0.00234493 0.000866259 0)
(-0.00266625 0.000918048 0)
(-0.00300456 0.000966907 0)
(-0.00335892 0.00101281 0)
(-0.00372837 0.00105575 0)
(-0.00411196 0.00109575 0)
(-0.00450873 0.00113285 0)
(-0.00491771 0.00116709 0)
(-0.00533797 0.00119853 0)
(-0.00576858 0.00122724 0)
(-0.00620862 0.00125327 0)
(-0.00665719 0.00127669 0)
(-0.00711342 0.00129759 0)
(-0.00757644 0.00131604 0)
(-0.00804543 0.00133209 0)
(-0.00851957 0.00134582 0)
(-0.00899805 0.0013573 0)
(-0.0094801 0.00136659 0)
(-0.00996496 0.00137374 0)
(-0.0104519 0.0013788 0)
(-0.0109401 0.00138184 0)
(-0.011429 0.00138288 0)
(-0.0119178 0.00138198 0)
(-0.0124058 0.00137917 0)
(-0.0128924 0.00137447 0)
(-0.0133769 0.00136792 0)
(-0.0138586 0.00135954 0)
(-0.0143369 0.00134935 0)
(-0.0148111 0.00133736 0)
(-0.0152806 0.00132358 0)
(-0.0157447 0.00130803 0)
(-0.0162029 0.00129071 0)
(-0.0166545 0.00127163 0)
(-0.0170988 0.00125078 0)
(-0.0175353 0.00122818 0)
(-0.0179633 0.00120381 0)
(-0.0183822 0.00117769 0)
(-0.0187913 0.00114981 0)
(-0.0191901 0.00112018 0)
(-0.0195779 0.00108879 0)
(-0.0199542 0.00105564 0)
(-0.0203183 0.00102075 0)
(-0.0206695 0.000984121 0)
(-0.0210074 0.00094576 0)
(-0.0213312 0.000905681 0)
(-0.0216405 0.000863899 0)
(-0.0219345 0.000820435 0)
(-0.0222129 0.000775312 0)
(-0.0224748 0.000728559 0)
(-0.02272 0.000680207 0)
(-0.0229477 0.000630294 0)
(-0.0231574 0.000578863 0)
(-0.0233487 0.000525963 0)
(-0.0235211 0.000471647 0)
(-0.0236741 0.000415974 0)
(-0.0238073 0.00035901 0)
(-0.0239201 0.000300826 0)
(-0.0240123 0.0002415 0)
(-0.0240835 0.000181116 0)
(-0.0241334 0.000119764 0)
(-0.0241616 5.75381e-05 0)
(-0.0241678 -5.45796e-06 0)
(-0.0241519 -6.91168e-05 0)
(-0.0241137 -0.000133325 0)
(-0.0240529 -0.000197962 0)
(-0.0239696 -0.000262904 0)
(-0.0238636 -0.00032802 0)
(-0.0237349 -0.000393175 0)
(-0.0235836 -0.00045823 0)
(-0.0234097 -0.000523041 0)
(-0.0232133 -0.000587459 0)
(-0.0229946 -0.000651334 0)
(-0.0227539 -0.00071451 0)
(-0.0224915 -0.000776831 0)
(-0.0222076 -0.000838138 0)
(-0.0219027 -0.000898271 0)
(-0.0215772 -0.000957067 0)
(-0.0212316 -0.00101437 0)
(-0.0208664 -0.00107001 0)
(-0.0204824 -0.00112383 0)
(-0.02008 -0.00117567 0)
(-0.0196601 -0.00122537 0)
(-0.0192234 -0.00127279 0)
(-0.0187708 -0.00131777 0)
(-0.018303 -0.00136016 0)
(-0.017821 -0.00139982 0)
(-0.0173258 -0.00143662 0)
(-0.0168184 -0.00147044 0)
(-0.0162998 -0.00150113 0)
(-0.0157711 -0.0015286 0)
(-0.0152334 -0.00155274 0)
(-0.014688 -0.00157344 0)
(-0.0141358 -0.00159062 0)
(-0.0135783 -0.0016042 0)
(-0.0130166 -0.00161411 0)
(-0.012452 -0.0016203 0)
(-0.0118858 -0.00162272 0)
(-0.0113192 -0.00162133 0)
(-0.0107536 -0.00161612 0)
(-0.0101902 -0.00160706 0)
(-0.00963044 -0.00159417 0)
(-0.0090755 -0.00157747 0)
(-0.00852673 -0.00155697 0)
(-0.00798539 -0.00153272 0)
(-0.00745276 -0.00150478 0)
(-0.00693008 -0.00147322 0)
(-0.00641856 -0.00143811 0)
(-0.00591939 -0.00139956 0)
(-0.00543372 -0.00135766 0)
(-0.00496265 -0.00131255 0)
(-0.00450727 -0.00126436 0)
(-0.00406857 -0.00121325 0)
(-0.00364753 -0.00115936 0)
(-0.00324504 -0.00110289 0)
(-0.00286194 -0.00104403 0)
(-0.002499 -0.000982975 0)
(-0.00215692 -0.000919957 0)
(-0.0018363 -0.000855213 0)
(-0.00153768 -0.000788998 0)
(-0.0012615 -0.000721586 0)
(-0.00100808 -0.000653271 0)
(-0.000777674 -0.000584368 0)
(-0.000570394 -0.000515217 0)
(-0.000386242 -0.000446186 0)
(-0.000225092 -0.000377674 0)
(-8.66771e-05 -0.000310115 0)
(2.94194e-05 -0.000243985 0)
(0.000123775 -0.000179809 0)
(0.000197143 -0.000118169 0)
(0.000250466 -5.97108e-05 0)
(0.00028489 -5.15835e-06 0)
(0.000301786 4.46772e-05 0)
(0.000302761 8.88843e-05 0)
(0.000289682 0.00012644 0)
(0.000264685 0.000156205 0)
(0.000230196 0.000176919 0)
(0.000188944 0.000187224 0)
(0.000143983 0.000185701 0)
(9.86421e-05 0.000170963 0)
(5.65277e-05 0.000141781 0)
(2.26049e-05 9.73004e-05 0)
(4.23088e-06 3.735e-05 0)
(2.13272e-06 -4.01157e-05 0)
(7.23551e-06 -7.98727e-05 0)
(1.06349e-05 -8.7375e-05 0)
(6.28474e-06 -6.90055e-05 0)
(-1.03834e-05 -2.99189e-05 0)
(-4.28098e-05 2.54599e-05 0)
(-9.378e-05 9.33602e-05 0)
(-0.000165508 0.000170611 0)
(-0.000259683 0.000254567 0)
(-0.000377539 0.000343035 0)
(-0.000519906 0.000434209 0)
(-0.000687266 0.000526613 0)
(-0.000879803 0.000619045 0)
(-0.00109744 0.000710537 0)
(-0.0013399 0.00080031 0)
(-0.00160669 0.000887748 0)
(-0.00189722 0.000972367 0)
(-0.00221073 0.00105379 0)
(-0.00254639 0.00113175 0)
(-0.00290329 0.00120602 0)
(-0.00328046 0.00127647 0)
(-0.00367689 0.00134301 0)
(-0.00409152 0.00140559 0)
(-0.0045233 0.00146419 0)
(-0.00497116 0.00151883 0)
(-0.00543401 0.00156955 0)
(-0.00591079 0.00161639 0)
(-0.00640042 0.00165944 0)
(-0.00690186 0.00169876 0)
(-0.00741407 0.00173444 0)
(-0.00793603 0.00176656 0)
(-0.00846674 0.00179523 0)
(-0.00900521 0.00182053 0)
(-0.00955049 0.00184255 0)
(-0.0101016 0.00186138 0)
(-0.0106578 0.0018771 0)
(-0.0112179 0.0018898 0)
(-0.0117812 0.00189955 0)
(-0.0123469 0.00190642 0)
(-0.012914 0.00191048 0)
(-0.0134818 0.00191179 0)
(-0.0140494 0.0019104 0)
(-0.014616 0.00190635 0)
(-0.0151809 0.0018997 0)
(-0.0157432 0.00189048 0)
(-0.0163022 0.00187871 0)
(-0.0168572 0.00186443 0)
(-0.0174073 0.00184765 0)
(-0.0179519 0.00182839 0)
(-0.0184902 0.00180668 0)
(-0.0190215 0.00178251 0)
(-0.019545 0.00175589 0)
(-0.02006 0.00172684 0)
(-0.0205658 0.00169535 0)
(-0.0210616 0.00166142 0)
(-0.0215468 0.00162507 0)
(-0.0220205 0.00158629 0)
(-0.0224822 0.00154508 0)
(-0.022931 0.00150145 0)
(-0.0233663 0.00145541 0)
(-0.0237873 0.00140696 0)
(-0.0241934 0.00135611 0)
(-0.0245839 0.00130289 0)
(-0.024958 0.00124731 0)
(-0.0253152 0.0011894 0)
(-0.0256546 0.00112917 0)
(-0.0259757 0.00106668 0)
(-0.0262779 0.00100195 0)
(-0.0265604 0.000935042 0)
(-0.0268226 0.000866 0)
(-0.0270641 0.000794888 0)
(-0.0272841 0.000721773 0)
(-0.0274822 0.000646731 0)
(-0.0276578 0.000569845 0)
(-0.0278104 0.000491205 0)
(-0.0279395 0.000410912 0)
(-0.0280447 0.000329073 0)