/*--------------------------------*- C++ -*----------------------------------*\
| =========                 |                                                 |
| \\      /  F ield         | OpenFOAM: The Open Source CFD Toolbox           |
|  \\    /   O peration     | Version:  2.1.1                                 |
|   \\  /    A nd           | Web:      www.OpenFOAM.org                      |
|    \\/     M anipulation  |                                                 |
\*---------------------------------------------------------------------------*/
FoamFile
{
    version     2.0;
    format      ascii;
    class       volScalarField;
    location    "0.5";
    object      p;
}
// * * * * * * * * * * * * * * * * * * * * * * * * * * * * * * * * * * * * * //

dimensions      [0 2 -2 0 0 0 0];

internalField   nonuniform List<scalar> 
6561
(
2.30754e-11
-2.34599e-06
-6.39513e-05
-0.000182211
-0.000342881
-0.00053311
-0.000741615
-0.000958836
-0.0011769
-0.00138951
-0.00159171
-0.0017796
-0.00195022
-0.00210128
-0.00223112
-0.00233848
-0.00242247
-0.00248247
-0.00251805
-0.00252891
-0.00251487
-0.00247579
-0.00241163
-0.00232237
-0.00220801
-0.00206864
-0.00190437
-0.0017154
-0.00150199
-0.00126453
-0.00100352
-0.000719594
-0.000413572
-8.6442e-05
0.000260601
0.000626149
0.00100856
0.00140597
0.00181626
0.00223708
0.00266584
0.00309973
0.00353576
0.00397071
0.00440125
0.00482392
0.00523516
0.00563142
0.00600912
0.00636477
0.00669502
0.00699665
0.00726674
0.00750261
0.00770196
0.00786289
0.00798392
0.0080641
0.00810297
0.00810064
0.00805779
0.00797568
0.00785617
0.00770168
0.00751522
0.00730036
0.00706118
0.00680229
0.00652877
0.00624615
0.00596033
0.00567776
0.00540509
0.00514941
0.00491806
0.00471858
0.00455837
0.00444402
0.00438034
0.00436899
0.00439761
2.2997e-06
-4.08472e-08
-5.44841e-05
-0.000154847
-0.00028948
-0.000449329
-0.000625683
-0.000810938
-0.000998421
-0.00118257
-0.00135885
-0.00152358
-0.00167386
-0.0018074
-0.00192243
-0.0020176
-0.0020919
-0.00214456
-0.00217504
-0.00218293
-0.00216794
-0.00212987
-0.0020686
-0.00198405
-0.00187621
-0.00174513
-0.00159092
-0.00141375
-0.0012139
-0.000991739
-0.00074776
-0.000482592
-0.000197021
0.000107999
0.000431327
0.000771623
0.00112734
0.00149672
0.00187778
0.00226832
0.00266595
0.00306806
0.00347186
0.00387441
0.00427264
0.00466336
0.00504333
0.00540928
0.00575796
0.00608621
0.00639095
0.00666931
0.00691863
0.00713653
0.00732094
0.00747018
0.00758297
0.0076585
0.00769643
0.00769693
0.0076607
0.00758895
0.00748347
0.00734654
0.00718098
0.00699011
0.00677771
0.00654803
0.00630572
0.00605581
0.0058037
0.00555505
0.00531582
0.0050921
0.0048901
0.00471595
0.0045754
0.0044731
0.00441233
0.00439734
0.00442613
6.40672e-05
5.42796e-05
-5.69113e-07
-9.343e-05
-0.000214601
-0.000356861
-0.000513382
-0.000677822
-0.000844545
-0.00100873
-0.00116631
-0.00131395
-0.00144893
-0.00156906
-0.00167261
-0.00175824
-0.00182489
-0.00187176
-0.00189823
-0.00190386
-0.00188828
-0.00185126
-0.00179261
-0.00171224
-0.0016101
-0.0014862
-0.00134063
-0.00117356
-0.000985221
-0.000775979
-0.000546297
-0.000296774
-2.81555e-05
0.000258652
0.000562568
0.000882324
0.00121646
0.00156331
0.00192103
0.00228753
0.00266057
0.0030377
0.00341632
0.00379367
0.00416688
0.00453297
0.00488893
0.0052317
0.00555826
0.00586566
0.00615106
0.0064118
0.00664541
0.00684971
0.00702279
0.00716313
0.00726957
0.0073414
0.00737835
0.00738062
0.00734892
0.00728444
0.00718887
0.00706441
0.00691371
0.0067399
0.00654653
0.00633756
0.0061173
0.0058904
0.00566178
0.0054366
0.00522018
0.00501792
0.00483522
0.00467733
0.00454912
0.00445447
0.00439643
0.00438198
0.00441527
0.000183514
0.000155016
9.13152e-05
-2.46081e-06
-0.000119354
-0.000253339
-0.00039876
-0.000550346
-0.000703366
-0.000853693
-0.000997804
-0.00113274
-0.00125606
-0.00136578
-0.00146028
-0.0015383
-0.00159882
-0.00164106
-0.00166439
-0.00166835
-0.00165256
-0.00161675
-0.00156072
-0.00148434
-0.00138751
-0.00127024
-0.00113259
-0.000974665
-0.000796701
-0.000599009
-0.000382015
-0.000146273
0.000107524
0.000378527
0.000665722
0.000967919
0.00128374
0.00161163
0.00194982
0.00229636
0.00264913
0.00300582
0.00336397
0.00372095
0.00407407
0.00442049
0.00475737
0.00508181
0.00539096
0.00568203
0.00595232
0.00619933
0.00642071
0.00661442
0.00677866
0.006912
0.00701338
0.00708213
0.00711802
0.00712128
0.0070926
0.00703314
0.00694454
0.00682888
0.00668872
0.00652701
0.00634712
0.00615276
0.00594798
0.0057371
0.00552468
0.00531543
0.00511421
0.00492588
0.00475526
0.00460704
0.00448561
0.00439454
0.00433706
0.00432122
0.00435326
0.000347442
0.000291189
0.00021205
0.000111676
-6.5531e-06
-0.000137676
-0.000276999
-0.000420257
-0.000563575
-0.000703517
-0.00083711
-0.000961828
-0.00107556
-0.00117655
-0.00126339
-0.00133492
-0.00139023
-0.00142856
-0.00144934
-0.00145211
-0.00143649
-0.0014022
-0.00134901
-0.00127676
-0.00118536
-0.00107475
-0.000944956
-0.000796068
-0.000628261
-0.000441801
-0.000237066
-1.45507e-05
0.000225113
0.000481147
0.000752613
0.0010384
0.00133723
0.00164763
0.00196795
0.00229634
0.0026308
0.00296914
0.00330902
0.00364796
0.00398337
0.00431257
0.00463283
0.00494139
0.00523553
0.00551257
0.00576994
0.00600522
0.0062162
0.00640089
0.0065576
0.00668496
0.00678194
0.00684792
0.00688269
0.00688649
0.00685999
0.0068043
0.00672101
0.00661212
0.00648006
0.00632766
0.00615811
0.00597492
0.00578189
0.00558306
0.00538265
0.00518503
0.00499462
0.00481584
0.00465303
0.00451043
0.00439201
0.00430113
0.00424101
0.00421929
0.004242
0.000543967
0.000454523
0.000354821
0.000243261
0.00011912
-1.36171e-05
-0.000151083
-0.000289934
-0.000427098
-0.000559808
-0.000685639
-0.000802514
-0.000908679
-0.00100267
-0.00108328
-0.00114953
-0.00120061
-0.00123586
-0.00125477
-0.0012569
-0.00124189
-0.00120947
-0.00115939
-0.00109149
-0.00100562
-0.000901703
-0.000779726
-0.000639731
-0.000481842
-0.000306269
-0.000113326
9.6555e-05
0.000322816
0.000564757
0.00082152
0.00109209
0.00137526
0.00166968
0.00197378
0.00228584
0.00260395
0.00292602
0.00324983
0.00357301
0.00389308
0.00420746
0.00451353
0.00480862
0.0050901
0.00535539
0.00560198
0.00582755
0.00602994
0.00620721
0.00635771
0.00648011
0.00657342
0.00663703
0.00667072
0.00667472
0.00664967
0.00659666
0.00651719
0.00641321
0.00628704
0.00614138
0.00597928
0.00580406
0.00561933
0.00542887
0.00523663
0.00504665
0.004863
0.00468973
0.00453079
0.00439001
0.00427099
0.00417689
0.0041108
0.00407891
0.00408586
0.000762362
0.000636253
0.00051285
0.000386639
0.000252907
0.000114849
-2.43622e-05
-0.000162218
-0.000296389
-0.000424736
-0.000545373
-0.000656674
-0.000757254
-0.000845954
-0.000921809
-0.000984023
-0.00103194
-0.00106502
-0.0010828
-0.00108492
-0.00107104
-0.0010409
-0.000994252
-0.000930908
-0.000850706
-0.000753532
-0.000639322
-0.000508069
-0.000359838
-0.000194778
-1.31318e-05
0.000184745
0.000398372
0.000627133
0.000870261
0.00112683
0.00139573
0.0016757
0.00196528
0.00226284
0.00256656
0.00287447
0.00318442
0.00349414
0.00380123
0.0041032
0.0043975
0.00468153
0.00495272
0.00520854
0.00544654
0.00566443
0.00586006
0.00603154
0.00617723
0.0062958
0.00638626
0.00644798
0.00648074
0.00648474
0.00646057
0.00640929
0.00633234
0.00623159
0.00610927
0.00596799
0.00581065
0.00564044
0.00546078
0.00527525
0.00508757
0.0049015
0.00472084
0.0045493
0.00439053
0.00424798
0.00412496
0.00402441
0.00394922
0.00390362
0.00389026
0.000993308
0.000828936
0.000679615
0.00053622
0.000390128
0.000243875
0.000100048
-3.95964e-05
-0.00017341
-0.000299844
-0.000417526
-0.000525271
-0.00062207
-0.000707074
-0.000779574
-0.000838981
-0.000884801
-0.000916616
-0.000934067
-0.000936841
-0.000924656
-0.000897257
-0.000854411
-0.000795909
-0.000721567
-0.000631233
-0.000524793
-0.000402186
-0.000263413
-0.00010855
6.22338e-05
0.000248666
0.000450354
0.000666771
0.000897241
0.00114093
0.00139684
0.00166378
0.0019404
0.00222516
0.00251633
0.00281202
0.00311017
0.00340858
0.00370491
0.00399673
0.00428154
0.00455679
0.00481993
0.00506846
0.00529996
0.00551211
0.00570279
0.0058701
0.00601237
0.00612826
0.00621675
0.00627719
0.0063093
0.00631326
0.00628961
0.00623934
0.00616385
0.00606493
0.00594475
0.0058058
0.0056509
0.00548309
0.00530566
0.00512202
0.00493568
0.00475022
0.00456917
0.004396
0.00423407
0.00408657
0.00395647
0.00384658
0.00375956
0.00369745
0.0036607
0.00122864
0.00102542
0.000848897
0.000686594
0.000526136
0.00036952
0.00021884
7.51776e-05
-6.04437e-05
-0.000187023
-0.000303676
-0.000409644
-0.000504285
-0.000587063
-0.000657528
-0.000715305
-0.000760072
-0.000791548
-0.000809476
-0.000813613
-0.000803726
-0.000779586
-0.000740965
-0.000687642
-0.000619407
-0.000536068
-0.000437461
-0.000323464
-0.000194009
-4.90956e-05
0.000111191
0.000286667
0.00047703
0.000681849
0.000900546
0.00113238
0.00137646
0.00163168
0.00189679
0.00217033
0.00245065
0.00273594
0.00302421
0.00331331
0.00360096
0.00388476
0.00416224
0.00443087
0.00468811
0.00493145
0.00515846
0.0053668
0.00555432
0.00571908
0.00585937
0.0059738
0.0060613
0.00612117
0.00615308
0.00615713
0.00613383
0.0060841
0.00600928
0.00591108
0.0057916
0.00565327
0.00549879
0.00533113
0.00515344
0.00496901
0.00478119
0.00459339
0.00440895
0.00423114
0.00406311
0.00390779
0.00376792
0.00364616
0.003545
0.00346424
0.00340213
0.00146129
0.00121925
0.00101491
0.000832599
0.000656376
0.000487798
0.000328551
0.000179106
3.99158e-05
-8.85283e-05
-0.0002058
-0.000311547
-0.000405485
-0.000487381
-0.000557046
-0.000614321
-0.000659059
-0.000691118
-0.000710346
-0.00071658
-0.000709636
-0.000689312
-0.000655389
-0.000607634
-0.000545808
-0.000469678
-0.000379026
-0.000273665
-0.000153452
-1.8305e-05
0.00013178
0.000296712
0.000476287
0.000670173
0.000877892
0.00109881
0.00133212
0.00157682
0.00183175
0.00209553
0.00236659
0.00264319
0.00292338
0.00320507
0.00348601
0.00376383
0.00403606
0.00430016
0.00455358
0.00479379
0.0050183
0.00522475
0.00541091
0.00557478
0.0057146
0.00582889
0.0059165
0.00597666
0.00600898
0.00601346
0.00599056
0.00594112
0.00586642
0.00576809
0.00564818
0.00550904
0.0053533
0.00518384
0.00500372
0.00481614
0.00462433
0.00443157
0.00424107
0.00405595
0.00387917
0.00371349
0.00356144
0.00342561
0.00330841
0.00320738
0.00311869
0.00168501
0.00140462
0.00117229
0.000969334
0.000776423
0.000594751
0.000425655
0.000269058
0.000124887
-6.83995e-06
-0.000126125
-0.000233004
-0.000327531
-0.00040977
-0.000479786
-0.000537631
-0.000583331
-0.000616884
-0.000638247
-0.000647332
-0.000644008
-0.000628101
-0.000599397
-0.000557649
-0.000502591
-0.000433944
-0.000351433
-0.000254799
-0.000143821
-1.83306e-05
0.000121771
0.000276492
0.00044573
0.000629258
0.000826702
0.00103753
0.00126103
0.00149632
0.00174229
0.00199767
0.00226095
0.00253044
0.00280426
0.00308035
0.00335646
0.00363025
0.00389922
0.00416083
0.00441248
0.00465159
0.00487561
0.0050821
0.00526875
0.00543348
0.00557442
0.00568999
0.00577895
0.00584044
0.00587395
0.00587942
0.00585719
0.00580804
0.00573316
0.00563414
0.00551293
0.00537184
0.00521343
0.00504052
0.00485611
0.00466331
0.00446531
0.00426527
0.00406632
0.00387147
0.00368358
0.00350527
0.00333892
0.00318714
0.00305227
0.00292975
0.00281371
0.00189425
0.00157621
0.00131604
0.00109215
0.000882005
0.000686476
0.000506609
0.000341821
0.000191555
5.53899e-05
-6.70801e-05
-0.000176256
-0.000272515
-0.000356207
-0.000427638
-0.000487066
-0.000534687
-0.000570634
-0.000594968
-0.000607677
-0.00060868
-0.000597827
-0.000574909
-0.000539664
-0.000491792
-0.000430965
-0.000356846
-0.000269103
-0.000167431
-5.15678e-05
7.86843e-05
0.000223437
0.000382697
0.000556344
0.000744114
0.000945581
0.00116014
0.00138699
0.00162512
0.00187334
0.00213021
0.00239409
0.00266315
0.00293533
0.00320842
0.00348006
0.00374773
0.00400884
0.00426075
0.00450078
0.00472633
0.00493484
0.00512391
0.00529132
0.00543508
0.00555351
0.00564523
0.00570925
0.00574496
0.00575217
0.00573112
0.00568251
0.00560743
0.00550741
0.00538432
0.00524042
0.00507822
0.00490049
0.0047102
0.00451042
0.00430427
0.00409489
0.00388536
0.00367863
0.0034775
0.00328452
0.003102
0.00293259
0.00277869
0.00263369
0.00248981
0.00208394
0.00172912
0.00144147
0.00119665
0.000968999
0.000759149
0.000567875
0.000394132
0.000236909
9.53759e-05
-3.12546e-05
-0.000143727
-0.000242728
-0.000328874
-0.000402705
-0.000464674
-0.00051514
-0.000554365
-0.000582508
-0.00059963
-0.000605693
-0.000600571
-0.000584054
-0.000555861
-0.000515654
-0.000463052
-0.000397652
-0.000319043
-0.00022683
-0.000120653
-2.09843e-07
0.000134721
0.000284258
0.000448396
0.000626983
0.000819703
0.00102606
0.00124534
0.00147664
0.00171883
0.00197055
0.00223021
0.00249601
0.00276591
0.00303771
0.00330901
0.00357728
0.00383987
0.00409406
0.00433708
0.00456621
0.00477879
0.00497227
0.0051443
0.00529275
0.00541576
0.00551183
0.00557979
0.00561891
0.00562886
0.00560977
0.0055622
0.00548717
0.00538611
0.00526084
0.00511354
0.00494671
0.00476307
0.00456557
0.00435727
0.00414129
0.00392076
0.00369874
0.00347819
0.0032619
0.00305242
0.00285202
0.00266348
0.00248932
0.002321
0.0021489
0.00224943
0.0018588
0.00154419
0.00127862
0.00103343
0.000809028
0.000605948
0.00042271
0.000257878
0.000110235
-2.13643e-05
-0.00013799
-0.000240621
-0.000330128
-0.000407271
-0.000472688
-0.000526891
-0.000570262
-0.000603055
-0.000625393
-0.00063728
-0.000638605
-0.000629153
-0.000608618
-0.00057662
-0.000532722
-0.000476447
-0.0004073
-0.000324791
-0.000228456
-0.000117884
7.262e-06
0.00014722
0.000302104
0.000471881
0.000656348
0.000855114
0.00106758
0.00129293
0.00153011
0.00177783
0.00203455
0.00229849
0.00256766
0.00283982
0.00311257
0.00338331
0.00364933
0.00390782
0.00415591
0.00439075
0.00460952
0.00480953
0.00498826
0.00514339
0.00527291
0.00537511
0.00544866
0.00549265
0.0055066
0.00549048
0.00544474
0.00537028
0.00526843
0.00514095
0.00498996
0.00481792
0.00462754
0.00442177
0.00420367
0.0039764
0.00374311
0.0035069
0.00327079
0.0030376
0.00280992
0.00259008
0.00238103
0.00218548
0.00199304
0.00179231
0.00238637
0.00196097
0.00162005
0.00133406
0.00107147
0.000832468
0.000617367
0.000424275
0.000251354
9.70183e-05
-4.02166e-05
-0.000161731
-0.000268777
-0.000362468
-0.00044377
-0.000513497
-0.000572301
-0.000620678
-0.000658964
-0.000687341
-0.000705844
-0.000714372
-0.0007127
-0.000700492
-0.000677319
-0.000642681
-0.000596023
-0.00053676
-0.0004643
-0.000378073
-0.000277547
-0.000162266
-3.18657e-05
0.000113892
0.000275098
0.000451673
0.00064334
0.000849609
0.00106976
0.00130282
0.00154756
0.00180251
0.00206592
0.0023358
0.00260992
0.00288583
0.00316089
0.00343229
0.00369713
0.00395242
0.00419514
0.00442234
0.00463112
0.00481877
0.00498278
0.00512091
0.00523125
0.00531227
0.00536285
0.00538233
0.00537051
0.00532768
0.0052546
0.00515251
0.00502308
0.00486838
0.00469084
0.00449316
0.0042783
0.00404936
0.00380955
0.0035621
0.00331019
0.00305692
0.00280523
0.00255779
0.00231702
0.00208614
0.00186811
0.00165073
0.00142088
0.00249068
0.0020316
0.00166511
0.00135915
0.00107943
0.000825917
0.00059873
0.000395573
0.000214222
5.27399e-05
-9.06811e-05
-0.000217715
-0.000329876
-0.000428505
-0.000514762
-0.000589622
-0.000653871
-0.000708105
-0.000752735
-0.000787993
-0.000813938
-0.000830473
-0.000837353
-0.000834206
-0.00082055
-0.000795813
-0.000759358
-0.000710503
-0.00064855
-0.00057281
-0.000482631
-0.000377426
-0.0002567
-0.000120082
3.2652e-05
0.000201549
0.000386456
0.000586996
0.000802551
0.00103224
0.00127492
0.00152915
0.00179324
0.0020652
0.00234279
0.00262353
0.00290471
0.00318345
0.00345671
0.00372137
0.00397426
0.00421221
0.00443215
0.00463112
0.00480639
0.00495547
0.00507622
0.00516686
0.00522604
0.00525288
0.00524697
0.00520843
0.00513788
0.00503641
0.0049056
0.00474747
0.0045644
0.00435912
0.0041346
0.00389401
0.00364064
0.00337781
0.00310885
0.00283698
0.00256529
0.00229661
0.0020335
0.0017795
0.00153787
0.00129466
0.00103503
0.00255847
0.00206685
0.00167559
0.00135021
0.00105373
0.000785927
0.000546705
0.000333387
0.000143377
-2.55998e-05
-0.000175663
-0.000308766
-0.000426671
-0.000530934
-0.000622898
-0.000703688
-0.000774209
-0.000835151
-0.000886989
-0.000929996
-0.000964247
-0.00098964
-0.00100591
-0.00101263
-0.00100926
-0.000995163
-0.0009696
-0.000931789
-0.000880919
-0.000816178
-0.000736782
-0.000642008
-0.000531222
-0.000403911
-0.000259711
-9.84374e-05
7.98877e-05
0.000275011
0.000486425
0.000713349
0.000954715
0.00120916
0.00147502
0.00175032
0.00203283
0.00232001
0.0026091
0.00289711
0.0031809
0.00345717
0.00372257
0.00397374
0.00420736
0.00442024
0.00460937
0.00477199
0.00490568
0.00500838
0.00507847
0.00511482
0.00511679
0.00508427
0.0050177
0.00491804
0.00478676
0.00462578
0.00443748
0.00422458
0.00399009
0.00373726
0.0034695
0.00319026
0.00290304
0.00261125
0.00231816
0.00202682
0.00173998
0.00146156
0.00119516
0.000925111
0.000634846
0.00258604
0.00206309
0.00164792
0.00130373
0.00099095
0.000709152
0.000458039
0.000234557
3.57477e-05
-0.000140991
-0.000298076
-0.000437732
-0.000561956
-0.000672507
-0.000770897
-0.000858392
-0.000936008
-0.00100451
-0.00106444
-0.0011161
-0.00115956
-0.00119472
-0.00122127
-0.00123875
-0.00124654
-0.00124391
-0.00123004
-0.00120404
-0.00116496
-0.00111187
-0.00104384
-0.00096001
-0.000859595
-0.000741929
-0.000606499
-0.000452973
-0.000281229
-9.13886e-05
0.000116165
0.000340759
0.000581418
0.00083685
0.00110544
0.00138524
0.00167401
0.00196918
0.00226792
0.00256715
0.00286357
0.00315375
0.00343412
0.00370109
0.0039511
0.00418066
0.00438648
0.00456549
0.00471493
0.00483245
0.00491611
0.00496448
0.00497663
0.00495223
0.00489149
0.00479519
0.00466467
0.00450179
0.00430884
0.00408858
0.00384408
0.00357867
0.0032959
0.0029994
0.00269286
0.00237993
0.00206413
0.00174873
0.00143679
0.00113259
0.000840192
0.00054214
0.000220133
0.00256984
0.0020168
0.00157864
0.00121632
0.000887774
0.000592356
0.000329569
9.59909e-05
-0.000111689
-0.000296391
-0.000460823
-0.000607465
-0.000738541
-0.000856
-0.000961517
-0.00105648
-0.00114202
-0.00121896
-0.00128789
-0.00134912
-0.00140276
-0.00144865
-0.00148646
-0.00151566
-0.00153557
-0.00154536
-0.00154411
-0.0015308
-0.00150436
-0.00146373
-0.00140782
-0.00133562
-0.00124619
-0.00113869
-0.00101246
-0.000866998
-0.000702034
-0.000517537
-0.000313757
-9.12429e-05
0.000149135
0.000406168
0.000678301
0.000963629
0.0012599
0.00156452
0.0018746
0.00218696
0.00249816
0.00280458
0.00310246
0.00338795
0.00365721
0.00390645
0.00413204
0.00433056
0.0044989
0.00463434
0.00473458
0.00479784
0.0048229
0.00480911
0.00475643
0.00466544
0.00453732
0.0043738
0.00417715
0.00395012
0.00369583
0.00341775
0.00311956
0.00280513
0.00247835
0.00214316
0.00180339
0.00146259
0.00112412
0.000792757
0.000473005
0.000145621
-0.000209494
0.00250648
0.00192465
0.00146448
0.00108477
0.000741029
0.00043242
0.000158234
-8.53173e-05
-0.000301888
-0.000494709
-0.000666768
-0.000820794
-0.000959226
-0.0010842
-0.00119753
-0.00130073
-0.00139501
-0.00148128
-0.00156014
-0.00163195
-0.00169676
-0.00175443
-0.00180455
-0.00184654
-0.00187963
-0.00190291
-0.00191532
-0.00191573
-0.00190295
-0.00187574
-0.00183289
-0.00177319
-0.00169554
-0.00159895
-0.00148255
-0.00134569
-0.00118792
-0.00100904
-0.000809163
-0.000588688
-0.000348367
-8.93061e-05
0.000187014
0.000478734
0.000783618
0.00109906
0.0014221
0.00174946
0.00207757
0.00240263
0.00272064
0.0030275
0.00331905
0.00359118
0.00383987
0.00406133
0.00425204
0.00440885
0.00452908
0.00461055
0.00465164
0.00465139
0.00460944
0.00452614
0.00440244
0.00423998
0.00404094
0.00380806
0.00354453
0.00325395
0.00294018
0.0026073
0.00225952
0.00190107
0.00153612
0.00116857
0.000802137
0.000442121
9.35476e-05
-0.000264692
-0.000654566
0.00239271
0.00178344
0.0013023
0.000905966
0.000547671
0.00022635
-5.89187e-05
-0.000312277
-0.000537719
-0.000738779
-0.000918716
-0.0010805
-0.00122678
-0.00135985
-0.00148168
-0.00159389
-0.00169777
-0.00179428
-0.00188406
-0.00196745
-0.00204452
-0.00211506
-0.00217864
-0.00223458
-0.00228204
-0.00231998
-0.00234725
-0.00236258
-0.00236463
-0.002352
-0.0023233
-0.00227718
-0.00221234
-0.0021276
-0.00202191
-0.00189441
-0.00174449
-0.00157175
-0.00137614
-0.0011579
-0.000917634
-0.000656334
-0.000375384
-7.65776e-05
0.00023788
0.000565376
0.000902905
0.00124709
0.00159424
0.00194034
0.00228119
0.00261237
0.00292942
0.00322785
0.00350324
0.00375137
0.00396826
0.00415031
0.00429436
0.00439777
0.00445851
0.00447519
0.00444713
0.00437435
0.00425759
0.0040983
0.00389858
0.00366115
0.00338927
0.00308665
0.00275736
0.00240576
0.00203636
0.00165373
0.00126245
0.000866816
0.00047094
8.07049e-05
-0.000298294
-0.000689116
-0.0011157
0.00222541
0.00159015
0.0010891
0.000676981
0.000304803
-2.87163e-05
-0.000324713
-0.000587682
-0.000821949
-0.00103134
-0.00121939
-0.00138929
-0.00154389
-0.00168566
-0.00181668
-0.00193869
-0.00205304
-0.00216073
-0.00226244
-0.00235851
-0.00244897
-0.00253359
-0.00261184
-0.00268301
-0.00274612
-0.00280006
-0.00284353
-0.00287512
-0.00289333
-0.00289662
-0.00288341
-0.00285216
-0.00280137
-0.00272967
-0.0026358
-0.0025187
-0.00237753
-0.00221172
-0.002021
-0.00180545
-0.00156549
-0.00130199
-0.00101619
-0.000709813
-0.000385009
-4.4377e-05
0.000309044
0.0006718
0.00104005
0.00140962
0.00177604
0.00213462
0.00248053
0.0028089
0.00311486
0.0033937
0.00364096
0.0038525
0.00402464
0.00415422
0.0042387
0.00427624
0.00426574
0.00420685
0.00410003
0.00394651
0.00374829
0.00350803
0.00322904
0.00291517
0.00257072
0.00220032
0.00180883
0.00140124
0.000982545
0.000557492
0.000130645
-0.000291473
-0.000702643
-0.00112799
-0.00159353
0.00200165
0.00134188
0.000822073
0.000395029
9.67675e-06
-0.000335493
-0.000641839
-0.000914198
-0.00115723
-0.00137504
-0.00157142
-0.00174979
-0.00191319
-0.00206424
-0.00220516
-0.00233777
-0.00246349
-0.00258336
-0.00269807
-0.00280795
-0.00291301
-0.00301296
-0.00310723
-0.00319499
-0.00327519
-0.00334657
-0.00340773
-0.00345709
-0.00349301
-0.00351375
-0.00351757
-0.0035027
-0.00346746
-0.00341024
-0.00332957
-0.00322416
-0.00309295
-0.00293514
-0.00275024
-0.00253811
-0.002299
-0.00203359
-0.001743
-0.00142881
-0.0010931
-0.000738448
-0.00036789
1.50494e-05
0.00040641
0.000801829
0.0011966
0.00158572
0.001964
0.00232613
0.00266678
0.00298071
0.00326289
0.00350861
0.00371358
0.00387405
0.00398693
0.00404981
0.00406109
0.00402002
0.00392671
0.00378211
0.00358805
0.00334714
0.00306271
0.00273876
0.0023798
0.00199079
0.00157695
0.00114372
0.000696593
0.000240799
-0.000218593
-0.000674354
-0.00111959
-0.00158161
-0.00208867
0.00171863
0.00103594
0.000498552
5.74932e-05
-0.000340291
-0.000696539
-0.00101283
-0.00129435
-0.00154605
-0.00177236
-0.00197729
-0.00216449
-0.00233718
-0.00249812
-0.00264966
-0.00279369
-0.00293171
-0.00306478
-0.0031936
-0.0033185
-0.00343944
-0.00355608
-0.00366778
-0.00377362
-0.00387244
-0.00396288
-0.00404337
-0.0041122
-0.00416755
-0.00420749
-0.00423008
-0.00423336
-0.00421541
-0.00417439
-0.00410858
-0.00401646
-0.00389671
-0.00374827
-0.00357042
-0.00336278
-0.00312538
-0.00285868
-0.00256363
-0.00224167
-0.00189477
-0.00152544
-0.0011367
-0.000732115
-0.000315762
0.00010783
0.000533709
0.000956571
0.00137084
0.00177074
0.00215044
0.00250414
0.00282617
0.00311119
0.00335423
0.00355087
0.00369735
0.00379064
0.00382857
0.00380988
0.00373424
0.0036023
0.00341564
0.00317677
0.00288905
0.00255659
0.00218413
0.00177696
0.00134073
0.000881352
0.000404851
-8.29869e-05
-0.000576536
-0.0010678
-0.00154914
-0.00205023
-0.00260169
0.00137374
0.000669781
0.000116062
-0.000338066
-0.000747509
-0.00111424
-0.00144006
-0.00173048
-0.00199079
-0.00222565
-0.00243935
-0.00263574
-0.0028182
-0.00298966
-0.00315255
-0.00330887
-0.00346015
-0.00360749
-0.00375159
-0.00389276
-0.00403092
-0.00416569
-0.00429634
-0.00442186
-0.00454099
-0.00465222
-0.00475385
-0.00484401
-0.00492069
-0.0049818
-0.00502515
-0.00504858
-0.00504993
-0.0050271
-0.00497812
-0.00490119
-0.00479472
-0.00465738
-0.00448815
-0.00428641
-0.00405191
-0.00378488
-0.00348606
-0.00315669
-0.00279861
-0.00241421
-0.00200649
-0.00157902
-0.00113596
-0.00068198
-0.00022228
0.000237528
0.000691469
0.00113331
0.00155665
0.00195509
0.00232228
0.00265215
0.00293899
0.00317763
0.00336353
0.00349296
0.00356307
0.00357198
0.00351886
0.00340395
0.00322856
0.00299503
0.00270668
0.00236774
0.0019832
0.00155866
0.00110024
0.000614372
0.000107669
-0.00041348
-0.000942832
-0.00147155
-0.00199119
-0.00253394
-0.00313299
0.000964576
0.000241076
-0.000327679
-0.000793894
-0.0012142
-0.00159079
-0.00192571
-0.00222478
-0.0024936
-0.0027371
-0.00295979
-0.00316573
-0.00335847
-0.00354107
-0.00371608
-0.00388556
-0.00405109
-0.0042138
-0.0043744
-0.00453315
-0.00468997
-0.00484438
-0.00499559
-0.0051425
-0.00528372
-0.00541763
-0.00554236
-0.00565589
-0.00575602
-0.00584045
-0.00590679
-0.00595263
-0.00597555
-0.0059732
-0.00594332
-0.00588381
-0.00579278
-0.0056686
-0.00550995
-0.00531588
-0.00508586
-0.00481984
-0.00451829
-0.00418225
-0.00381334
-0.00341384
-0.00298663
-0.00253529
-0.002064
-0.0015776
-0.00108147
-0.000581555
-8.42132e-05
0.000403826
0.000875593
0.00132401
0.00174201
0.00212272
0.00245961
0.00274664
0.00297842
0.00315039
0.0032589
0.00330138
0.00327637
0.00318361
0.00302404
0.00279977
0.00251407
0.00217123
0.00177645
0.00133572
0.000855603
0.000343124
-0.00019448
-0.000750151
-0.00131697
-0.00188517
-0.00244543
-0.00303267
-0.00368282
0.000488928
-0.000252305
-0.000834746
-0.00131203
-0.00174237
-0.00212819
-0.00247176
-0.00277923
-0.00305646
-0.00330866
-0.00354057
-0.00375644
-0.00395997
-0.00415437
-0.00434227
-0.00452581
-0.00470662
-0.00488584
-0.00506418
-0.0052419
-0.00541884
-0.00559448
-0.00576796
-0.00593806
-0.00610329
-0.00626189
-0.00641184
-0.00655094
-0.00667682
-0.00678695
-0.00687873
-0.00694948
-0.00699653
-0.00701723
-0.00700903
-0.00696951
-0.00689644
-0.00678786
-0.00664211
-0.00645789
-0.00623433
-0.00597107
-0.00566827
-0.00532668
-0.00494771
-0.00453342
-0.00408658
-0.00361069
-0.00310996
-0.00258931
-0.00205433
-0.00151124
-0.0009668
-0.000428242
9.68643e-05
0.000600733
0.00107552
0.00151348
0.00190716
0.00224956
0.00253433
0.00275595
0.00290986
0.00299265
0.00300213
0.00293742
0.00279898
0.00258865
0.00230952
0.00196594
0.00156332
0.00110799
0.000607036
6.80709e-05
-0.000500965
-0.00109229
-0.00169823
-0.00230802
-0.00291137
-0.00354613
-0.00425121
-5.51796e-05
-0.000812263
-0.00140699
-0.0018943
-0.00233383
-0.00272823
-0.00308
-0.00339559
-0.00368115
-0.00394213
-0.00418348
-0.00440964
-0.00462449
-0.00483134
-0.00503292
-0.00523144
-0.00542857
-0.00562547
-0.00582285
-0.00602093
-0.00621954
-0.00641807
-0.00661559
-0.00681078
-0.00700204
-0.00718746
-0.00736489
-0.00753194
-0.00768603
-0.00782445
-0.00794433
-0.00804274
-0.00811673
-0.00816336
-0.00817973
-0.0081631
-0.00811088
-0.00802072
-0.00789059
-0.00771881
-0.00750414
-0.00724583
-0.00694368
-0.00659813
-0.00621029
-0.00578197
-0.00531576
-0.00481505
-0.00428399
-0.00372758
-0.00315155
-0.00256239
-0.00196725
-0.00137387
-0.000790426
-0.000225449
0.000312373
0.000814365
0.00127205
0.00167738
0.00202291
0.00230202
0.00250912
0.0026398
0.002691
0.0026611
0.00254997
0.00235902
0.00209116
0.00175069
0.00134321
0.000875391
0.000354838
-0.000210179
-0.000810973
-0.00143897
-0.00208567
-0.0027392
-0.00338823
-0.00407376
-0.0048379
-0.000669475
-0.00144046
-0.00204604
-0.00254229
-0.00299014
-0.00339246
-0.00375197
-0.0040754
-0.00436919
-0.00463902
-0.00489004
-0.00512688
-0.00535357
-0.00557352
-0.00578957
-0.00600399
-0.0062185
-0.00643427
-0.006652
-0.00687189
-0.00709373
-0.00731686
-0.00754026
-0.00776252
-0.00798191
-0.0081964
-0.00840368
-0.00860119
-0.00878615
-0.00895561
-0.00910647
-0.00923554
-0.00933955
-0.00941525
-0.00945941
-0.0094689
-0.00944075
-0.00937222
-0.00926085
-0.00910454
-0.00890162
-0.00865091
-0.00835181
-0.00800437
-0.00760934
-0.00716824
-0.00668339
-0.00615801
-0.00559616
-0.00500284
-0.00438389
-0.00374603
-0.00309677
-0.00244434
-0.00179756
-0.00116572
-0.000558386
1.47492e-05
0.000544115
0.00102048
0.00143518
0.00178037
0.00204925
0.00223629
0.00233736
0.00234995
0.0022732
0.002108
0.00185692
0.00152417
0.00111547
0.000637853
9.94269e-05
-0.000490846
-0.00112347
-0.001789
-0.00247804
-0.00317751
-0.0038749
-0.00461465
-0.00544229
-0.00135542
-0.00213829
-0.00275324
-0.00325734
-0.00371262
-0.00412218
-0.00448896
-0.00481997
-0.00512188
-0.00540062
-0.00566154
-0.00590943
-0.00614845
-0.00638216
-0.00661347
-0.00684472
-0.00707765
-0.00731348
-0.00755288
-0.00779605
-0.00804272
-0.00829218
-0.00854334
-0.0087947
-0.00904441
-0.00929031
-0.00952992
-0.00976052
-0.00997913
-0.0101826
-0.0103675
-0.0105304
-0.0106678
-0.0107759
-0.0108514
-0.0108905
-0.0108901
-0.0108468
-0.0107577
-0.0106203
-0.0104325
-0.0101925
-0.00989934
-0.0095526
-0.0091526
-0.00870048
-0.00819825
-0.00764888
-0.00705626
-0.00642533
-0.00576198
-0.00507313
-0.00436661
-0.0036511
-0.00293607
-0.00223157
-0.00154812
-0.000896469
-0.000287374
0.00026864
0.000761561
0.00118216
0.00152227
0.00177501
0.00193506
0.00199882
0.00196453
0.00183239
0.00160453
0.00128496
0.000879473
0.00039539
-0.000158643
-0.000772946
-0.00143715
-0.00214089
-0.00287376
-0.00362135
-0.0043699
-0.0051675
-0.0060634
-0.00211421
-0.00290691
-0.0035297
-0.00404053
-0.00450235
-0.00491847
-0.00529204
-0.00563033
-0.00594025
-0.00622795
-0.00649896
-0.00675825
-0.00701012
-0.00725822
-0.00750556
-0.00775453
-0.00800693
-0.00826397
-0.00852635
-0.00879425
-0.00906735
-0.0093449
-0.00962573
-0.00990824
-0.0101905
-0.0104702
-0.0107447
-0.0110111
-0.0112663
-0.0115068
-0.011729
-0.0119291
-0.0121033
-0.0122477
-0.0123582
-0.0124309
-0.012462
-0.0124479
-0.012385
-0.0122705
-0.0121015
-0.0118759
-0.0115921
-0.0112492
-0.010847
-0.0103862
-0.00986846
-0.00929634
-0.00867354
-0.00800483
-0.00729612
-0.00655443
-0.00578785
-0.00500553
-0.00421752
-0.00343467
-0.00266845
-0.00193073
-0.00123354
-0.000588806
-8.02803e-06
0.000498019
0.000919604
0.00124834
0.00147748
0.00160212
0.00161943
0.00152872
0.00133153
0.00103155
0.000634543
0.000148087
-0.000418655
-0.00105526
-0.00175044
-0.0024928
-0.00327087
-0.00406875
-0.0048713
-0.00573057
-0.00669976
-0.00294672
-0.00374715