/*--------------------------------*- C++ -*----------------------------------*\
| =========                 |                                                 |
| \\      /  F ield         | OpenFOAM: The Open Source CFD Toolbox           |
|  \\    /   O peration     | Version:  2.1.1                                 |
|   \\  /    A nd           | Web:      www.OpenFOAM.org                      |
|    \\/     M anipulation  |                                                 |
\*---------------------------------------------------------------------------*/
FoamFile
{
    version     2.0;
    format      ascii;
    class       volVectorField;
    location    "0.5";
    object      U;
}
// * * * * * * * * * * * * * * * * * * * * * * * * * * * * * * * * * * * * * //

dimensions      [0 1 -1 0 0 0 0];

internalField   nonuniform List<vector> 
6561
(
(8.28296e-06 -8.26704e-06 0)
(3.27336e-05 -1.54055e-05 0)
(6.26346e-05 -1.42803e-05 0)
(8.16075e-05 -8.85435e-06 0)
(8.14677e-05 -1.70633e-06 0)
(5.9475e-05 5.87101e-06 0)
(1.51761e-05 1.32199e-05 0)
(-5.06818e-05 2.00446e-05 0)
(-0.000136681 2.62163e-05 0)
(-0.000241053 3.16934e-05 0)
(-0.000361881 3.64827e-05 0)
(-0.000497225 4.06154e-05 0)
(-0.000645184 4.41347e-05 0)
(-0.000803942 4.70887e-05 0)
(-0.000971791 4.95261e-05 0)
(-0.00114713 5.14939e-05 0)
(-0.00132849 5.30354e-05 0)
(-0.00151449 5.41891e-05 0)
(-0.00170385 5.49886e-05 0)
(-0.0018954 5.54616e-05 0)
(-0.00208802 5.56306e-05 0)
(-0.00228064 5.55126e-05 0)
(-0.00247227 5.51199e-05 0)
(-0.00266193 5.44602e-05 0)
(-0.00284865 5.35373e-05 0)
(-0.0030315 5.23517e-05 0)
(-0.00320953 5.09015e-05 0)
(-0.00338179 4.91829e-05 0)
(-0.00354734 4.71908e-05 0)
(-0.00370521 4.492e-05 0)
(-0.00385442 4.23654e-05 0)
(-0.00399402 3.9523e-05 0)
(-0.00412301 3.63904e-05 0)
(-0.00424043 3.29675e-05 0)
(-0.00434532 2.92571e-05 0)
(-0.00443675 2.52654e-05 0)
(-0.00451381 2.10025e-05 0)
(-0.00457567 1.64828e-05 0)
(-0.00462152 1.17249e-05 0)
(-0.00465067 6.75268e-06 0)
(-0.00466249 1.59458e-06 0)
(-0.00465647 -3.71593e-06 0)
(-0.00463223 -9.14045e-06 0)
(-0.00458951 -1.4636e-05 0)
(-0.00452821 -2.01551e-05 0)
(-0.00444838 -2.56467e-05 0)
(-0.00435028 -3.10559e-05 0)
(-0.0042343 -3.63254e-05 0)
(-0.00410106 -4.13961e-05 0)
(-0.00395135 -4.62075e-05 0)
(-0.00378616 -5.06992e-05 0)
(-0.00360667 -5.48118e-05 0)
(-0.00341426 -5.84879e-05 0)
(-0.00321045 -6.16732e-05 0)
(-0.00299696 -6.43175e-05 0)
(-0.00277564 -6.6376e-05 0)
(-0.00254849 -6.78102e-05 0)
(-0.0023176 -6.85885e-05 0)
(-0.00208515 -6.86873e-05 0)
(-0.00185337 -6.80919e-05 0)
(-0.00162455 -6.67961e-05 0)
(-0.00140094 -6.48035e-05 0)
(-0.00118478 -6.21269e-05 0)
(-0.000978267 -5.87885e-05 0)
(-0.000783471 -5.48202e-05 0)
(-0.000602358 -5.02625e-05 0)
(-0.000436737 -4.51648e-05 0)
(-0.000288232 -3.95851e-05 0)
(-0.000158254 -3.35899e-05 0)
(-4.79547e-05 -2.72557e-05 0)
(4.17774e-05 -2.06748e-05 0)
(0.000110394 -1.39378e-05 0)
(0.000157738 -7.17164e-06 0)
(0.0001841 -5.30814e-07 0)
(0.000190347 5.77652e-06 0)
(0.000178105 1.14491e-05 0)
(0.000150034 1.60237e-05 0)
(0.0001102 1.87754e-05 0)
(6.47752e-05 1.85248e-05 0)
(2.4108e-05 1.35177e-05 0)
(3.30857e-06 3.32281e-06 0)
(1.55159e-05 -3.27767e-05 0)
(5.32766e-05 -5.30576e-05 0)
(8.78097e-05 -4.1298e-05 0)
(9.17647e-05 -1.13937e-05 0)
(4.96603e-05 2.74158e-05 0)
(-4.53948e-05 6.95597e-05 0)
(-0.000195705 0.00011175 0)
(-0.000400603 0.000152088 0)
(-0.000657536 0.000189524 0)
(-0.000962778 0.000223522 0)
(-0.00131196 0.000253861 0)
(-0.0017004 0.000280517 0)
(-0.00212337 0.000303582 0)
(-0.00257619 0.00032322 0)
(-0.00305436 0.000339626 0)
(-0.00355359 0.000353012 0)
(-0.00406981 0.000363587 0)
(-0.0045992 0.000371546 0)
(-0.00513816 0.000377066 0)
(-0.00568329 0.000380299 0)
(-0.00623138 0.000381372 0)
(-0.00677934 0.000380387 0)
(-0.00732424 0.000377419 0)
(-0.00786318 0.000372523 0)
(-0.00839338 0.000365729 0)
(-0.00891207 0.000357055 0)
(-0.00941649 0.000346502 0)
(-0.00990391 0.000334062 0)
(-0.0103716 0.000319723 0)
(-0.0108168 0.000303471 0)
(-0.0112368 0.000285295 0)
(-0.0116287 0.000265192 0)
(-0.01199 0.000243169 0)
(-0.0123179 0.000219248 0)
(-0.0126098 0.00019347 0)
(-0.0128632 0.000165897 0)
(-0.0130756 0.000136614 0)
(-0.0132447 0.000105733 0)
(-0.0133685 7.3392e-05 0)
(-0.0134452 3.97604e-05 0)
(-0.0134731 5.03521e-06 0)
(-0.013451 -3.0557e-05 0)
(-0.0133778 -6.67608e-05 0)
(-0.0132532 -0.000103294 0)
(-0.0130768 -0.000139848 0)
(-0.012849 -0.000176095 0)
(-0.0125705 -0.000211686 0)
(-0.0122427 -0.000246258 0)
(-0.0118672 -0.000279439 0)
(-0.0114464 -0.000310852 0)
(-0.010983 -0.000340123 0)
(-0.0104803 -0.000366883 0)
(-0.00994206 -0.000390781 0)
(-0.00937257 -0.000411482 0)
(-0.00877649 -0.000428683 0)
(-0.00815889 -0.00044211 0)
(-0.00752516 -0.000451531 0)
(-0.00688099 -0.000456758 0)
(-0.0062323 -0.000457652 0)
(-0.00558513 -0.000454129 0)
(-0.0049456 -0.000446159 0)
(-0.00431984 -0.000433775 0)
(-0.00371387 -0.000417065 0)
(-0.00313354 -0.000396183 0)
(-0.00258444 -0.000371342 0)
(-0.00207182 -0.000342816 0)
(-0.0016005 -0.000310939 0)
(-0.00117478 -0.000276108 0)
(-0.000798331 -0.000238784 0)
(-0.000474139 -0.000199497 0)
(-0.00020437 -0.000158864 0)
(9.74946e-06 -0.000117581 0)
(0.00016809 -7.64945e-05 0)
(0.000271807 -3.66318e-05 0)
(0.000323608 7.10512e-07 0)
(0.000328125 3.38282e-05 0)
(0.000292391 6.04105e-05 0)
(0.000226303 7.72857e-05 0)
(0.000143258 8.00799e-05 0)
(6.31156e-05 6.32437e-05 0)
(1.34062e-05 2.40289e-05 0)
(1.45767e-05 -6.30121e-05 0)
(4.20025e-05 -8.77983e-05 0)
(4.80169e-05 -4.73386e-05 0)
(2.9359e-06 3.19649e-05 0)
(-0.000110968 0.000132394 0)
(-0.000302542 0.000242013 0)
(-0.000575219 0.000353049 0)
(-0.000928568 0.000460551 0)
(-0.00135946 0.000561504 0)
(-0.00186299 0.000654168 0)
(-0.00243314 0.000737649 0)
(-0.00306329 0.000811615 0)
(-0.00374658 0.000876094 0)
(-0.0044761 0.000931344 0)
(-0.00524508 0.000977759 0)
(-0.00604696 0.0010158 0)
(-0.00687548 0.00104594 0)
(-0.00772467 0.00106866 0)
(-0.00858883 0.00108439 0)
(-0.00946255 0.00109351 0)
(-0.0103407 0.00109635 0)
(-0.0112182 0.00109317 0)
(-0.0120905 0.00108418 0)
(-0.0129527 0.00106953 0)
(-0.0138003 0.00104933 0)
(-0.0146289 0.00102362 0)
(-0.015434 0.000992434 0)
(-0.0162111 0.000955776 0)
(-0.0169559 0.000913634 0)
(-0.017664 0.000865999 0)
(-0.018331 0.000812872 0)
(-0.0189525 0.000754273 0)
(-0.0195244 0.000690257 0)
(-0.0200423 0.000620916 0)
(-0.0205022 0.000546396 0)
(-0.0209002 0.000466898 0)
(-0.0212325 0.000382692 0)
(-0.0214957 0.000294114 0)
(-0.0216866 0.000201578 0)
(-0.0218025 0.000105573 0)
(-0.021841 6.66946e-06 0)
(-0.0218003 -9.44872e-05 0)
(-0.0216789 -0.000197174 0)
(-0.0214762 -0.000300598 0)
(-0.0211921 -0.000403899 0)
(-0.0208272 -0.000506162 0)
(-0.0203828 -0.000606423 0)
(-0.0198609 -0.000703682 0)
(-0.0192644 -0.000796917 0)
(-0.0185969 -0.000885095 0)
(-0.0178628 -0.000967193 0)
(-0.0170674 -0.00104221 0)
(-0.0162164 -0.00110918 0)
(-0.0153165 -0.00116722 0)
(-0.014375 -0.00121548 0)
(-0.0133997 -0.00125324 0)
(-0.012399 -0.00127987 0)
(-0.0113816 -0.00129487 0)
(-0.0103566 -0.00129786 0)
(-0.00933342 -0.00128863 0)
(-0.00832136 -0.00126712 0)
(-0.00732985 -0.00123341 0)
(-0.00636814 -0.00118777 0)
(-0.0054452 -0.00113064 0)
(-0.0045696 -0.00106261 0)
(-0.00374936 -0.00098448 0)
(-0.00299182 -0.000897187 0)
(-0.00230351 -0.000801865 0)
(-0.00168999 -0.000699831 0)
(-0.00115572 -0.000592604 0)
(-0.000703872 -0.000481936 0)
(-0.000336155 -0.000369844 0)
(-5.25937e-05 -0.000258706 0)
(0.000148736 -0.000151353 0)
(0.000272031 -5.12434e-05 0)
(0.000324174 3.73049e-05 0)
(0.000315218 0.000108818 0)
(0.000258709 0.000156346 0)
(0.000172076 0.000171215 0)
(8.02133e-05 0.000143375 0)
(1.83781e-05 6.44815e-05 0)
(9.3255e-06 -8.26279e-05 0)
(1.22493e-05 -9.20793e-05 0)
(-3.1846e-05 -2.23265e-06 0)
(-0.00014918 0.000148261 0)
(-0.00035654 0.000333215 0)
(-0.000663027 0.000534082 0)
(-0.00107218 0.00073806 0)
(-0.00158335 0.000936591 0)
(-0.00219286 0.00112415 0)
(-0.00289489 0.00129735 0)
(-0.00368221 0.00145427 0)
(-0.00454674 0.00159402 0)
(-0.00547995 0.0017164 0)
(-0.00647318 0.00182169 0)
(-0.00751781 0.00191043 0)
(-0.00860541 0.00198334 0)
(-0.00972784 0.00204119 0)
(-0.0108772 0.00208477 0)
(-0.0120461 0.00211483 0)
(-0.0132272 0.00213201 0)
(-0.0144135 0.00213692 0)
(-0.0155985 0.00213002 0)
(-0.0167756 0.00211169 0)
(-0.0179384 0.00208222 0)
(-0.0190809 0.00204181 0)
(-0.0201968 0.00199058 0)
(-0.0212802 0.0019286 0)
(-0.022325 0.0018559 0)
(-0.0233254 0.00177252 0)
(-0.0242753 0.00167845 0)
(-0.0251691 0.00157375 0)
(-0.0260008 0.0014585 0)
(-0.0267648 0.00133284 0)
(-0.0274555 0.001197 0)
(-0.0280677 0.0010513 0)
(-0.028596 0.000896158 0)
(-0.0290358 0.000732129 0)
(-0.0293826 0.000559893 0)
(-0.0296322 0.00038027 0)
(-0.0297813 0.000194223 0)
(-0.0298267 2.85888e-06 0)
(-0.0297663 -0.000192571 0)
(-0.0295984 -0.000390679 0)
(-0.0293221 -0.000589946 0)
(-0.0289376 -0.000788736 0)
(-0.0284458 -0.00098531 0)
(-0.0278485 -0.00117784 0)
(-0.0271485 -0.00136445 0)
(-0.0263498 -0.0015432 0)
(-0.0254571 -0.00171216 0)
(-0.0244763 -0.00186941 0)
(-0.0234143 -0.00201307 0)
(-0.0222787 -0.00214136 0)
(-0.0210784 -0.00225258 0)
(-0.0198228 -0.00234521 0)
(-0.0185222 -0.00241787 0)
(-0.0171874 -0.0024694 0)
(-0.0158299 -0.00249886 0)
(-0.0144615 -0.00250559 0)
(-0.0130945 -0.00248918 0)
(-0.0117409 -0.00244951 0)
(-0.010413 -0.00238679 0)
(-0.00912281 -0.00230153 0)
(-0.00788201 -0.00219456 0)
(-0.00670169 -0.00206705 0)
(-0.00559224 -0.00192049 0)
(-0.00456317 -0.00175672 0)
(-0.00362291 -0.0015779 0)
(-0.00277864 -0.00138657 0)
(-0.00203607 -0.00118564 0)
(-0.00139925 -0.000978485 0)
(-0.000870326 -0.000768943 0)
(-0.000449309 -0.000561489 0)
(-0.000133769 -0.000361368 0)
(8.1482e-05 -0.000174816 0)
(0.000204786 -9.36018e-06 0)
(0.000248058 0.000125836 0)
(0.000226997 0.000219617 0)
(0.000161382 0.000258636 0)
(7.89098e-05 0.000227588 0)
(1.88185e-05 0.000110025 0)
(2.21135e-06 -8.31326e-05 0)
(-2.73896e-05 -4.94364e-05 0)
(-0.000135667 0.000113453 0)
(-0.000341305 0.0003567 0)
(-0.000657848 0.000646585 0)
(-0.00109331 0.000958456 0)
(-0.00165038 0.00127466 0)
(-0.00232763 0.00158297 0)
(-0.0031206 0.00187518 0)
(-0.00402254 0.002146 0)
(-0.00502519 0.00239229 0)
(-0.00611925 0.00261242 0)
(-0.00729487 0.00280583 0)
(-0.00854193 0.00297269 0)
(-0.00985029 0.00311364 0)
(-0.0112099 0.0032296 0)
(-0.0126112 0.00332164 0)
(-0.0140444 0.00339086 0)
(-0.0155007 0.00343831 0)
(-0.016971 0.00346498 0)
(-0.0184469 0.00347172 0)
(-0.0199201 0.00345923 0)
(-0.0213826 0.0034281 0)
(-0.0228265 0.00337878 0)
(-0.0242442 0.00331158 0)
(-0.0256279 0.00322671 0)
(-0.0269702 0.00312434 0)
(-0.0282637 0.00300454 0)
(-0.0295011 0.00286739 0)
(-0.030675 0.00271296 0)
(-0.0317782 0.00254139 0)
(-0.0328037 0.00235285 0)
(-0.0337445 0.00214764 0)
(-0.0345938 0.00192617 0)
(-0.0353453 0.00168902 0)
(-0.0359926 0.0014369 0)
(-0.03653 0.00117076 0)
(-0.0369522 0.000891726 0)
(-0.0372544 0.000601141 0)
(-0.0374324 0.000300579 0)
(-0.0374828 -8.16751e-06 0)
(-0.0374029 -0.000323085 0)
(-0.037191 -0.00064195 0)
(-0.0368462 -0.000962338 0)
(-0.0363687 -0.00128165 0)
(-0.0357597 -0.00159712 0)
(-0.0350218 -0.00190587 0)
(-0.0341583 -0.00220493 0)
(-0.0331742 -0.00249126 0)
(-0.0320752 -0.00276181 0)
(-0.0308686 -0.00301358 0)
(-0.0295627 -0.00324362 0)
(-0.0281668 -0.00344913 0)
(-0.0266915 -0.00362748 0)
(-0.0251483 -0.00377627 0)
(-0.0235494 -0.00389336 0)
(-0.021908 -0.00397694 0)
(-0.0202378 -0.00402555 0)
(-0.0185531 -0.00403817 0)
(-0.0168683 -0.00401415 0)
(-0.0151983 -0.00395335 0)
(-0.0135576 -0.00385608 0)
(-0.0119606 -0.00372318 0)
(-0.0104213 -0.00355599 0)
(-0.00895312 -0.00335635 0)
(-0.00756843 -0.00312665 0)
(-0.00627866 -0.00286982 0)
(-0.00509392 -0.00258932 0)
(-0.00402282 -0.0022892 0)
(-0.00307222 -0.0019741 0)
(-0.00224699 -0.00164934 0)
(-0.0015498 -0.00132099 0)
(-0.000980795 -0.000996005 0)
(-0.000537357 -0.000682441 0)
(-0.000213778 -0.00038967 0)
(-9.2586e-07 -0.000128719 0)
(0.000114104 8.73546e-05 0)
(0.000148153 0.000243066 0)
(0.000122281 0.000320246 0)
(6.5226e-05 0.000297928 0)
(1.65861e-05 0.000151111 0)
(-5.60178e-06 -6.11078e-05 0)
(-7.19185e-05 4.88669e-05 0)
(-0.00025292 0.000311412 0)
(-0.000557444 0.000670189 0)
(-0.000994124 0.00108527 0)
(-0.00156883 0.00152671 0)
(-0.00228259 0.0019725 0)
(-0.00313264 0.00240695 0)
(-0.00411336 0.00281922 0)
(-0.00521697 0.0032021 0)
(-0.00643415 0.00355113 0)
(-0.00775449 0.00386384 0)
(-0.00916698 0.00413921 0)
(-0.0106603 0.00437723 0)
(-0.0122229 0.00457857 0)
(-0.0138436 0.00474431 0)
(-0.0155111 0.00487578 0)
(-0.0172147 0.00497437 0)
(-0.0189437 0.00504147 0)
(-0.020688 0.00507834 0)
(-0.0224375 0.00508614 0)
(-0.0241826 0.00506582 0)
(-0.0259138 0.00501817 0)
(-0.0276219 0.00494382 0)
(-0.0292978 0.00484322 0)
(-0.0309325 0.00471672 0)
(-0.0325173 0.00456454 0)
(-0.0340433 0.00438686 0)
(-0.0355018 0.00418384 0)
(-0.0368845 0.00395566 0)
(-0.0381828 0.00370255 0)
(-0.0393884 0.00342487 0)
(-0.0404934 0.00312309 0)
(-0.0414898 0.00279789 0)
(-0.0423703 0.00245015 0)
(-0.0431276 0.002081 0)
(-0.0437552 0.00169185 0)
(-0.044247 0.00128437 0)
(-0.0445976 0.000860562 0)
(-0.0448022 0.00042272 0)
(-0.0448571 -2.65409e-05 0)
(-0.0447593 -0.000484303 0)
(-0.0445068 -0.000947353 0)
(-0.044099 -0.00141221 0)
(-0.043536 -0.00187513 0)
(-0.0428195 -0.00233218 0)
(-0.0419524 -0.00277923 0)
(-0.0409389 -0.00321205 0)
(-0.0397845 -0.00362632 0)
(-0.0384962 -0.00401772 0)
(-0.0370821 -0.00438197 0)
(-0.0355519 -0.00471491 0)
(-0.0339165 -0.00501256 0)
(-0.0321878 -0.00527121 0)
(-0.0303792 -0.00548744 0)
(-0.0285046 -0.00565825 0)
(-0.0265792 -0.00578108 0)
(-0.0246188 -0.00585388 0)
(-0.0226396 -0.00587517 0)
(-0.0206582 -0.00584408 0)
(-0.0186916 -0.0057604 0)
(-0.0167565 -0.0056246 0)
(-0.0148695 -0.00543788 0)
(-0.0130465 -0.00520214 0)
(-0.011303 -0.00492006 0)
(-0.00965318 -0.00459505 0)
(-0.00811021 -0.00423131 0)
(-0.00668574 -0.0038338 0)
(-0.00538971 -0.00340832 0)
(-0.00423008 -0.00296151 0)
(-0.00321261 -0.00250092 0)
(-0.00234055 -0.00203514 0)
(-0.00161443 -0.0015739 0)
(-0.00103174 -0.00112833 0)
(-0.000586665 -0.000711168 0)
(-0.000269837 -0.000337101 0)
(-6.8017e-05 -2.31764e-05 0)
(3.60378e-05 0.00021077 0)
(6.38418e-05 0.000341758 0)
(4.37331e-05 0.000343242 0)
(1.29065e-05 0.000182555 0)
(-1.35115e-05 -1.51639e-05 0)
(-0.000118505 0.000207572 0)
(-0.000377024 0.000598805 0)
(-0.000786858 0.00109717 0)
(-0.00135081 0.00165798 0)
(-0.00207182 0.00224699 0)
(-0.00294859 0.00283848 0)
(-0.00397646 0.00341373 0)
(-0.00514832 0.00395949 0)
(-0.00645514 0.00446675 0)
(-0.00788643 0.00492974 0)
(-0.00943069 0.00534516 0)
(-0.0110758 0.00571148 0)
(-0.0128093 0.00602847 0)
(-0.0146186 0.00629677 0)
(-0.0164913 0.00651762 0)
(-0.0184149 0.00669256 0)
(-0.0203774 0.00682325 0)
(-0.0223669 0.00691138 0)
(-0.0243721 0.00695852 0)
(-0.0263817 0.00696609 0)
(-0.0283847 0.00693532 0)
(-0.0303704 0.00686721 0)
(-0.0323283 0.00676256 0)
(-0.0342481 0.00662199 0)
(-0.0361196 0.00644598 0)
(-0.0379327 0.00623486 0)
(-0.0396774 0.00598892 0)
(-0.0413441 0.00570844 0)
(-0.0429229 0.00539373 0)
(-0.0444044 0.00504517 0)
(-0.0457792 0.00466332 0)
(-0.0470382 0.00424893 0)
(-0.0481727 0.00380298 0)
(-0.0491743 0.00332674 0)
(-0.0500351 0.00282181 0)
(-0.0507477 0.00229015 0)
(-0.0513053 0.0017341 0)
(-0.051702 0.00115638 0)
(-0.0519327 0.000560154 0)
(-0.0519931 -5.1041e-05 0)
(-0.05188 -0.000673252 0)
(-0.0515915 -0.00130215 0)
(-0.0511267 -0.00193304 0)
(-0.050486 -0.00256091 0)
(-0.0496715 -0.0031805 0)
(-0.0486863 -0.0037863 0)
(-0.0475352 -0.00437265 0)
(-0.0462244 -0.0049338 0)
(-0.0447617 -0.00546401 0)
(-0.0431564 -0.00595758 0)
(-0.041419 -0.00640899 0)
(-0.0395618 -0.00681296 0)
(-0.0375982 -0.00716454 0)
(-0.0355427 -0.00745923 0)
(-0.0334112 -0.00769302 0)
(-0.0312203 -0.00786251 0)
(-0.0289877 -0.00796499 0)
(-0.0267314 -0.00799849 0)
(-0.02447 -0.00796185 0)
(-0.0222222 -0.0078548 0)
(-0.0200069 -0.00767797 0)
(-0.0178423 -0.00743293 0)
(-0.0157464 -0.00712226 0)
(-0.0137364 -0.00674951 0)
(-0.0118282 -0.00631925 0)
(-0.0100367 -0.00583709 0)
(-0.00837489 -0.00530968 0)
(-0.00685407 -0.00474473 0)
(-0.00548332 -0.00415108 0)
(-0.00426936 -0.00353876 0)
(-0.0032162 -0.00291907 0)
(-0.00232493 -0.00230474 0)
(-0.00159343 -0.00171014 0)
(-0.00101619 -0.00115151 0)
(-0.000584025 -0.000647296 0)
(-0.000283882 -0.000218528 0)
(-9.87018e-05 0.000110677 0)
(-7.1751e-06 0.000312721 0)
(1.75605e-05 0.000355924 0)
(8.50284e-06 0.000201316 0)
(-2.12912e-05 5.50711e-05 0)
(-0.000165563 0.000428878 0)
(-0.000503825 0.000979596 0)
(-0.00102246 0.00164273 0)
(-0.00171792 0.00237023 0)
(-0.00258967 0.00312461 0)
(-0.00363356 0.0038772 0)
(-0.00484264 0.00460675 0)
(-0.00620795 0.00529799 0)
(-0.00771897 0.0059403 0)
(-0.00936391 0.00652678 0)
(-0.0111301 0.00705332 0)
(-0.0130044 0.00751792 0)
(-0.0149732 0.00792014 0)
(-0.017023 0.00826059 0)
(-0.01914 0.00854061 0)
(-0.0213111 0.00876194 0)
(-0.023523 0.00892651 0)
(-0.0257628 0.00903628 0)
(-0.0280179 0.00909313 0)
(-0.030276 0.00909873 0)
(-0.032525 0.00905456 0)
(-0.0347531 0.00896184 0)
(-0.0369486 0.00882158 0)
(-0.0391001 0.00863454 0)
(-0.0411963 0.00840135 0)
(-0.0432261 0.00812247 0)
(-0.0451783 0.00779834 0)
(-0.0470421 0.00742936 0)
(-0.0488069 0.00701601 0)
(-0.0504621 0.00655887 0)
(-0.0519973 0.00605876 0)
(-0.0534027 0.00551671 0)
(-0.0546686 0.00493408 0)
(-0.0557857 0.00431261 0)
(-0.0567455 0.00365444 0)
(-0.0575399 0.00296215 0)
(-0.0581616 0.00223882 0)
(-0.058604 0.00148802 0)
(-0.0588617 0.000713831 0)
(-0.05893 -7.91492e-05 0)
(-0.0588055 -0.000885832 0)
(-0.0584862 -0.00170065 0)
(-0.0579712 -0.00251759 0)
(-0.057261 -0.00333026 0)
(-0.0563578 -0.00413191 0)
(-0.0552651 -0.00491553 0)
(-0.0539882 -0.00567392 0)
(-0.0525338 -0.00639976 0)
(-0.0509105 -0.00708575 0)
(-0.0491283 -0.00772466 0)
(-0.0471988 -0.00830946 0)
(-0.0451352 -0.00883346 0)
(-0.042952 -0.00929038 0)
(-0.0406653 -0.00967448 0)
(-0.0382922 -0.00998067 0)
(-0.0358509 -0.0102046 0)
(-0.0333605 -0.0103429 0)
(-0.0308408 -0.010393 0)
(-0.0283121 -0.0103533 0)
(-0.0257947 -0.0102236 0)
(-0.0233093 -0.0100047 0)
(-0.020876 -0.0096984 0)
(-0.0185146 -0.00930811 0)
(-0.0162437 -0.0088383 0)
(-0.0140811 -0.00829479 0)
(-0.0120432 -0.0076847 0)
(-0.0101444 -0.00701647 0)
(-0.00839736 -0.00629992 0)
(-0.00681242 -0.00554623 0)
(-0.00539732 -0.00476804 0)
(-0.00415698 -0.00397956 0)
(-0.00309328 -0.00319665 0)
(-0.0022048 -0.00243703 0)
(-0.00148661 -0.00172052 0)
(-0.000930087 -0.00106933 0)
(-0.000522783 -0.000508459 0)
(-0.000248277 -6.61261e-05 0)
(-8.59787e-05 0.000225761 0)
(-1.12202e-05 0.000331001 0)
(3.79999e-06 0.000205685 0)
(-2.884e-05 0.000149451 0)
(-0.000212225 0.000713513 0)
(-0.000630812 0.00145556 0)
(-0.00125967 0.0023095 0)
(-0.00208867 0.00322516 0)
(-0.00311349 0.00416276 0)
(-0.00432678 0.00509149 0)
(-0.00571892 0.00598817 0)
(-0.00727887 0.00683589 0)
(-0.00899437 0.00762279 0)
(-0.0108522 0.00834099 0)
(-0.0128385 0.00898574 0)
(-0.0149388 0.00955465 0)
(-0.0171387 0.0100471 0)
(-0.0194235 0.0104637 0)
(-0.0217786 0.0108059 0)
(-0.0241899 0.0110756 0)
(-0.026643 0.011275 0)
(-0.0291242 0.0114063 0)
(-0.0316199 0.0114718 0)
(-0.0341168 0.0114733 0)
(-0.0366017 0.0114125 0)
(-0.039062 0.0112909 0)
(-0.0414849 0.0111097 0)
(-0.0438579 0.0108698 0)
(-0.0461689 0.010572 0)
(-0.0484056 0.0102169 0)
(-0.050556 0.00980509 0)
(-0.0526084 0.00933715 0)
(-0.054551 0.00881373 0)
(-0.0563725 0.00823567 0)
(-0.0580617 0.00760404 0)
(-0.0596078 0.00692025 0)
(-0.0610004 0.00618609 0)
(-0.0622296 0.00540378 0)
(-0.0632859 0.00457609 0)
(-0.0641609 0.00370629 0)
(-0.0648466 0.00279828 0)
(-0.0653359 0.00185654 0)
(-0.065623 0.000886173 0)
(-0.065703 -0.000107091 0)
(-0.0655722 -0.00111693 0)
(-0.0652284 -0.00213644 0)
(-0.0646705 -0.00315819 0)
(-0.0638993 -0.00417428 0)
(-0.0629169 -0.00517639 0)
(-0.0617272 -0.00615589 0)
(-0.0603358 -0.00710391 0)
(-0.0587499 -0.00801147 0)
(-0.0569785 -0.00886958 0)
(-0.0550323 -0.00966935 0)
(-0.0529239 -0.0104022 0)
(-0.0506672 -0.0110598 0)
(-0.0482778 -0.0116344 0)
(-0.0457729 -0.0121191 0)
(-0.0431708 -0.0125075 0)
(-0.0404911 -0.0127943 0)
(-0.0377543 -0.0129752 0)
(-0.0349816 -0.0130471 0)
(-0.0321949 -0.0130081 0)
(-0.0294162 -0.0128576 0)
(-0.0266679 -0.0125968 0)
(-0.0239716 -0.0122278 0)
(-0.0213488 -0.0117547 0)
(-0.01882 -0.011183 0)
(-0.0164044 -0.0105198 0)
(-0.01412 -0.00977389 0)
(-0.0119828 -0.00895552 0)
(-0.0100068 -0.00807671 0)
(-0.00820361 -0.00715115 0)
(-0.00658221 -0.00619421 0)
(-0.00514864 -0.00522309 0)
(-0.00390577 -0.00425689 0)
(-0.00285308 -0.00331677 0)
(-0.00198653 -0.00242618 0)
(-0.00129836 -0.00161106 0)
(-0.00077708 -0.000900281 0)
(-0.000407238 -0.000325991 0)
(-0.000169326 7.59562e-05 0)
(-4.12931e-05 0.000265459 0)
(-9.64198e-07 0.000194819 0)
(-3.61228e-05 0.000267533 0)
(-0.000258028 0.00106118 0)
(-0.000756474 0.00202696 0)
(-0.00149553 0.00309833 0)
(-0.00245848 0.00422401 0)
(-0.00363704 0.00536286 0)
(-0.00502045 0.00648265 0)
(-0.0065962 0.00755887 0)
(-0.0083509 0.00857348 0)
(-0.0102704 0.00951368 0)
(-0.0123399 0.0103709 0)
(-0.0145441 0.01114 0)
(-0.0168675 0.0118182 0)
(-0.0192945 0.0124049 0)
(-0.0218096 0.0129006 0)
(-0.0243973 0.0133071 0)
(-0.0270424 0.0136264 0)
(-0.0297298 0.0138609 0)
(-0.0324449 0.0140132 0)
(-0.0351732 0.0140857 0)
(-0.0379005 0.0140806 0)
(-0.0406129 0.0139998 0)
(-0.0432967 0.013845 0)
(-0.0459384 0.0136176 0)
(-0.0485245 0.0133186 0)
(-0.051042 0.012949 0)
(-0.0534778 0.0125097 0)
(-0.0558191 0.0120012 0)
(-0.0580532 0.0114244 0)
(-0.0601675 0.0107802 0)
(-0.06215 0.0100696 0)
(-0.0639885 0.00929413 0)
(-0.0656717 0.00845547 0)
(-0.0671883 0.0075559 0)
(-0.0685278 0.00659823 0)
(-0.0696802 0.00558586 0)
(-0.0706362 0.00452284 0)
(-0.0713875 0.00341392 0)
(-0.0719265 0.00226457 0)
(-0.072247 0.00108099 0)
(-0.0723437 -0.000129887 0)
(-0.0722126 -0.00136042 0)
(-0.0718513 -0.00260231 0)
(-0.0712588 -0.0038466 0)
(-0.0704355 -0.00508379 0)
(-0.0693837 -0.00630392 0)
(-0.0681075 -0.00749661 0)
(-0.0666126 -0.00865126 0)
(-0.0649065 -0.00975708 0)
(-0.0629987 -0.0108033 0)
(-0.0609006 -0.0117793 0)
(-0.058625 -0.0126746 0)
(-0.0561869 -0.0134795 0)
(-0.0536028 -0.0141847 0)
(-0.0508906 -0.0147815 0)
(-0.0480698 -0.0152625 0)
(-0.0451613 -0.0156213 0)
(-0.0421867 -0.0158525 0)
(-0.0391687 -0.0159524 0)
(-0.0361307 -0.0159187 0)
(-0.0330963 -0.0157507 0)
(-0.0300892 -0.0154494 0)
(-0.027133 -0.0150175 0)
(-0.0242507 -0.0144598 0)
(-0.0214643 -0.0137828 0)
(-0.018795 -0.0129948 0)
(-0.0162621 -0.0121064 0)
(-0.0138834 -0.0111297 0)
(-0.0116743 -0.0100791 0)
(-0.00964795 -0.00897079 0)
(-0.0078146 -0.00782299 0)
(-0.00618158 -0.00665598 0)
(-0.00475299 -0.00549217 0)
(-0.00352947 -0.00435621 0)
(-0.0025081 -0.00327517 0)
(-0.00168224 -0.00227874 0)
(-0.0010416 -0.00139952 0)
(-0.000571963 -0.000673415 0)
(-0.000255138 -0.000139892 0)
(-7.18671e-05 0.000157583 0)
(-5.66525e-06 0.000168397 0)
(-4.31372e-05 0.000408734 0)
(-0.000302732 0.00147099 0)
(-0.000879905 0.00269305 0)
(-0.00172813 0.00400877 0)
(-0.00282425 0.00536663 0)
(-0.00415596 0.00672491 0)
(-0.00570896 0.00805065 0)
(-0.00746769 0.00931862 0)
(-0.00941627 0.0105101 0)
(-0.0115385 0.0116118 0)
(-0.0138178 0.0126147 0)
(-0.0162376 0.0135134 0)
(-0.018781 0.0143052 0)
(-0.0214315 0.0149893 0)
(-0.0241725 0.0155665 0)
(-0.0269877 0.0160387 0)
(-0.0298609 0.0164081 0)
(-0.0327765 0.0166775 0)
(-0.0357189 0.0168498 0)
(-0.038673 0.0169274 0)
(-0.0416237 0.016913 0)
(-0.0445563 0.0168087 0)
(-0.0474564 0.0166163 0)
(-0.0503097 0.0163375 0)
(-0.053102 0.0159735 0)
(-0.0558194 0.0155253 0)
(-0.0584481 0.014994 0)
(-0.0609745 0.0143805 0)
(-0.0633852 0.0136856 0)
(-0.0656668 0.0129106 0)
(-0.0678065 0.0120567 0)
(-0.0697917 0.0111258 0)
(-0.07161 0.0101201 0)
(-0.0732496 0.00904225 0)
(-0.0746995 0.0078957 0)
(-0.0759489 0.00668456 0)
(-0.0769881 0.00541367 0)
(-0.0778081 0.0040887 0)
(-0.0784011 0.00271617 0)
(-0.0787602 0.0013034 0)
(-0.0788798 -0.000141395 0)
(-0.0787557 -0.00160921 0)
(-0.078385 -0.00309024 0)
(-0.0777665 -0.00457397 0)
(-0.0769007 -0.00604923 0)
(-0.0757897 -0.0075043 0)
(-0.0744375 -0.00892702 0)
(-0.07285 -0.0103049 0)
(-0.0710349 -0.0116253 0)
(-0.0690019 -0.0128755 0)
(-0.0667628 -0.0140431 0)
(-0.064331 -0.0151158 0)
(-0.0617219 -0.016082 0)
(-0.0589529 -0.0169308 0)
(-0.0560427 -0.0176521 0)
(-0.0530117 -0.0182369 0)
(-0.0498819 -0.0186775 0)
(-0.0466761 -0.0189678 0)
(-0.0434184 -0.0191031 0)
(-0.0401335 -0.0190805 0)
(-0.0368464 -0.0188992 0)
(-0.0335826 -0.0185601 0)
(-0.0303671 -0.0180664 0)
(-0.0272247 -0.0174235 0)
(-0.0241793 -0.0166387 0)
(-0.0212534 -0.0157221 0)
(-0.0184684 -0.0146855 0)
(-0.0158436 -0.0135433 0)
(-0.0133962 -0.0123122 0)
(-0.0111407 -0.0110109 0)
(-0.00908903 -0.00966056 0)
(-0.00725003 -0.00828466 0)
(-0.00562918 -0.00690895 0)
(-0.0042285 -0.00556161 0)
(-0.00304638 -0.00427334 0)
(-0.00207755 -0.00307754 0)
(-0.0013131 -0.00201049 0)
(-0.000740238 -0.00111165 0)
(-0.000342187 -0.000423859 0)
(-0.000102507 6.46876e-06 0)
(-1.02465e-05 0.000126386 0)
(-4.98933e-05 0.000572412 0)
(-0.000346221 0.00194169 0)
(-0.00100057 0.0034524 0)
(-0.00195625 0.00503947 0)
(-0.00318388 0.0066518 0)
(-0.00466717 0.00824779 0)
(-0.0063882 0.00979437 0)
(-0.00832831 0.0112662 0)
(-0.010469 0.0126443 0)
(-0.0127919 0.0139152 0)
(-0.0152787 0.01507 0)
(-0.0179113 0.0161032 0)
(-0.0206715 0.0170122 0)
(-0.0235417 0.0177964 0)
(-0.0265043 0.0184568 0)
(-0.0295423 0.0189955 0)
(-0.0326386 0.0194152 0)
(-0.0357769 0.0197189 0)
(-0.0389408 0.0199097 0)
(-0.0421146 0.0199905 0)
(-0.0452825 0.0199639 0)
(-0.0484292 0.0198326 0)
(-0.0515396 0.0195984 0)
(-0.0545986 0.0192632 0)
(-0.0575914 0.0188284 0)
(-0.0605035 0.0182952 0)
(-0.0633203 0.0176648 0)
(-0.0660276 0.0169383 0)
(-0.0686112 0.0161168 0)
(-0.0710573 0.0152016 0)
(-0.0733522 0.0141945 0)
(-0.0754826 0.0130976 0)
(-0.0774357 0.0119135 0)
(-0.079199 0.0106455 0)
(-0.0807608 0.00929755 0)
(-0.0821098 0.00787455 0)
(-0.0832358 0.00638218 0)
(-0.0841292 0.00482705 0)
(-0.0847817 0.00321673 0)
(-0.0851859 0.00155976 0)
(-0.0853358 -0.000134354 0)
(-0.0852267 -0.00185518 0)
(-0.0848556 -0.00359138 0)
(-0.0842209 -0.0053308 0)
(-0.0833226 -0.00706054 0)
(-0.0821629 -0.00876706 0)
(-0.0807456 -0.0104363 0)
(-0.0790764 -0.0120539 0)
(-0.0771633 -0.0136051 0)
(-0.075016 -0.0150754 0)
(-0.0726464 -0.0164502 0)
(-0.0700685 -0.0177155 0)
(-0.0672981 -0.0188576 0)
(-0.0643529 -0.0198639 0)
(-0.0612527 -0.0207227 0)
(-0.0580186 -0.0214233 0)
(-0.0546735 -0.0219569 0)
(-0.0512414 -0.022316 0)
(-0.0477476 -0.0224952 0)
(-0.0442181 -0.0224908 0)
(-0.0406796 -0.0223017 0)
(-0.037159 -0.0219287 0)
(-0.0336831 -0.0213754 0)
(-0.0302783 -0.0206477 0)
(-0.0269702 -0.0197541 0)
(-0.0237835 -0.0187057 0)
(-0.0207411 -0.0175162 0)
(-0.0178642 -0.016202 0)
(-0.0151718 -0.0147821 0)
(-0.0126804 -0.0132779 0)
(-0.0104034 -0.0117136 0)
(-0.00835143 -0.0101158 0)
(-0.00653154 -0.00851367 0)
(-0.00494735 -0.00693896 0)
(-0.00359877 -0.00542606 0)
(-0.00248207 -0.00401202 0)
(-0.00158987 -0.00273676 0)
(-0.000910912 -0.00164321 0)
(-0.000429864 -0.00077736 0)
(-0.00013302 -0.000188347 0)
(-1.46928e-05 6.88919e-05 0)
(-5.64043e-05 0.000757899 0)
(-0.00038844 0.00247184 0)
(-0.00111814 0.00430319 0)
(-0.00217911 0.00618844 0)
(-0.00353594 0.0080775 0)
(-0.00516844 0.00992947 0)
(-0.00705514 0.0117118 0)
(-0.00917421 0.0133994 0)
(-0.0115045 0.0149737 0)
(-0.0140254 0.0164215 0)
(-0.0167168 0.0177341 0)
(-0.0195589 0.0189062 0)
(-0.0225323 0.0199356 0)
(-0.0256183 0.0208221 0)
(-0.0287984 0.0215671 0)
(-0.0320546 0.0221729 0)
(-0.0353692 0.0226427 0)
(-0.038725 0.0229798 0)
(-0.0421053 0.0231875 0)
(-0.0454934 0.0232691 0)
(-0.0488733 0.0232277 0)
(-0.0522288 0.0230658 0)
(-0.0555442 0.0227857 0)
(-0.0588041 0.0223894 0)
(-0.061993 0.0218784 0)
(-0.0650956 0.0212543 0)
(-0.068097 0.0205182 0)
(-0.0709821 0.0196714 0)
(-0.0737364 0.0187153 0)
(-0.0763453 0.0176516 0)
(-0.0787946 0.0164821 0)
(-0.0810705 0.0152094 0)
(-0.0831594 0.0138365 0)
(-0.0850483 0.0123674 0)
(-0.086725 0.0108066 0)
(-0.0881776 0.00915963 0)
(-0.0893952 0.00743314 0)
(-0.0903679 0.00563468 0)
(-0.0910866 0.00377292 0)
(-0.0915436 0.0018576 0)
(-0.0917323 -0.000100431 0)
(-0.0916476 -0.00208928 0)
(-0.0912859 -0.00409604 0)
(-0.0906452 -0.00610688 0)
(-0.0897254 -0.0081071 0)
(-0.0885281 -0.0100813 0)
(-0.0870568 -0.0120134 0)
(-0.0853173 -0.0138871 0)
(-0.0833172 -0.0156857 0)
(-0.0810663 -0.0173924 0)
(-0.0785766 -0.0189906 0)
(-0.0758623 -0.0204642 0)
(-0.0729394 -0.0217976 0)
(-0.0698263 -0.0229762 0)
(-0.0665431 -0.0239864 0)
(-0.0631118 -0.0248161 0)
(-0.0595562 -0.0254548 0)
(-0.0559013 -0.0258937 0)
(-0.0521737 -0.0261264 0)
(-0.0484006 -0.0261486 0)
(-0.0446103 -0.0259584 0)
(-0.0408312 -0.0255567 0)
(-0.037092 -0.0249472 0)
(-0.0334207 -0.0241364 0)
(-0.029845 -0.0231336 0)
(-0.0263915 -0.0219512 0)
(-0.023085 -0.0206048 0)
(-0.0199488 -0.0191126 0)
(-0.0170038 -0.017496 0)
(-0.0142686 -0.0157793 0)
(-0.0117584 -0.0139895 0)
(-0.00948583 -0.0121565 0)
(-0.0074597 -0.010313 0)
(-0.0056854 -0.00849432 0)
(-0.00416456 -0.00673855 0)
(-0.00289513 -0.00508646 0)
(-0.00187138 -0.00358157 0)
(-0.00108364 -0.00227023 0)
(-0.000518014 -0.00120151 0)
(-0.000163385 -0.000427144 0)
(-1.9015e-05 -3.94224e-06 0)
(-6.26824e-05 0.00096452 0)
(-0.000429364 0.00305983 0)
(-0.00123241 0.00524324 0)
(-0.00239615 0.00745319 0)
(-0.00387939 0.00964109 0)
(-0.00565816 0.0117673 0)
(-0.00770747 0.0138001 0)
(-0.0100024 0.0157155 0)
(-0.012519 0.0174955 0)
(-0.0152346 0.0191275 0)
(-0.018127 0.0206035 0)
(-0.021175 0.0219188 0)
(-0.0243578 0.0230717 0)
(-0.0276555 0.0240625 0)
(-0.0310487 0.024893 0)
(-0.0345186 0.0255663 0)
(-0.0380468 0.0260857 0)
(-0.0416155 0.0264551 0)
(-0.0452072 0.0266781 0)
(-0.048805 0.0267584 0)
(-0.0523919 0.0266993 0)
(-0.0559516 0.0265036 0)
(-0.0594679 0.0261737 0)
(-0.0629245 0.0257119 0)
(-0.0663058 0.0251199 0)
(-0.0695958 0.0243993 0)
(-0.0727791 0.0235514 0)
(-0.0758403 0.0225778 0)
(-0.078764 0.02148 0)
(-0.0815353 0.0202599 0)
(-0.0841395 0.0189197 0)
(-0.0865621 0.0174624 0)
(-0.088789 0.0158914 0)
(-0.0908068 0.0142111 0)